 Gaussian 09, Revision D.01,
 Gaussian 09:  ES64L-G09RevD.01 24-Apr-2013

 ----------------------------------------------------------------------
 #p wb97xd/gen nosymm freq temp=373.15 punch=derivatives int=grid=ultra
 fine
 ----------------------------------------------------------------------

 ------
 CrSite
 ------
 Symbolic Z-matrix:
 Charge =  0 Multiplicity = 5

                          Input orientation:
 ---------------------------------------------------------------------
 Center     Atomic      Atomic             Coordinates (Angstroms)
 Number     Number       Type             X           Y           Z
 ---------------------------------------------------------------------
      1         24           0       -0.095472    2.716987    3.395667
      2          8           0        0.903341    2.771463    1.882251
      3          8           0       -1.832528    2.767467    2.875230
      4          8           0       -1.147483    3.823658    0.502908
      5         14           0       -2.371855    3.509670    1.541693
      6         14           0        0.452501    3.480397    0.499218
      7          6           0        0.303414    4.345444    4.447414
      8          6           0        0.014688    5.645347    3.707483
      9          1           0        1.367439    4.255264    4.710071
     10          1           0       -0.291067    4.261305    5.368692
     11          6           0        0.389316    6.891094    4.522651
     12          1           0        0.572429    5.667879    2.766446
     13          1           0       -1.045500    5.696520    3.449478
     14          6           0        1.845579    7.007992    4.787856
     15          1           0        0.039020    7.775676    3.968687
     16          1           0       -0.169451    6.896138    5.464254
     17          1           0        2.217084    7.560210    5.640662
     18          1           0        2.561751    6.685877    4.040751
     19          9           0       -3.090888    4.914737    1.908546
     20          9           0       -3.494745    2.623997    0.788738
     21          9           0        0.782815    2.538077   -0.771037
     22          9           0        1.267339    4.859529    0.252034
 ---------------------------------------------------------------------

 SCF Done:  E(UwB97XD) =  -2406.04279857     A.U. after   27 cycles

 Alpha  occ. eigenvalues -- -216.01396 -66.42399 -66.42373 -24.94483 -24.83046
 Alpha  occ. eigenvalues --  -24.83023 -24.82913 -24.82836 -21.21402 -21.21359
 Alpha  occ. eigenvalues --  -21.20953 -19.29248 -19.27652 -19.27604 -10.30356
 Alpha  occ. eigenvalues --  -10.30208 -10.29765 -10.29719  -5.51854  -5.51828
 Alpha  occ. eigenvalues --   -3.86518  -3.86491  -3.86420  -3.86394  -3.86313
 Alpha  occ. eigenvalues --   -3.86287  -3.11784  -2.06535  -2.06350  -2.05511
 Alpha  occ. eigenvalues --   -1.31485  -1.31377  -1.29430  -1.29402  -1.14623
 Alpha  occ. eigenvalues --   -1.09260  -1.09201  -0.91887  -0.83233  -0.74467
 Alpha  occ. eigenvalues --   -0.70692  -0.68120  -0.64851  -0.60953  -0.59629
 Alpha  occ. eigenvalues --   -0.59469  -0.58573  -0.57999  -0.57319  -0.54878
 Alpha  occ. eigenvalues --   -0.54261  -0.53982  -0.53610  -0.53138  -0.53047
 Alpha  occ. eigenvalues --   -0.52325  -0.52076  -0.51782  -0.51283  -0.50924
 Alpha  occ. eigenvalues --   -0.50242  -0.48584  -0.48268  -0.47340  -0.46508
 Alpha  occ. eigenvalues --   -0.46117  -0.45708  -0.44571  -0.43629  -0.39909
 Alpha  occ. eigenvalues --   -0.38652  -0.38104  -0.37717  -0.29468
 Alpha virt. eigenvalues --   -0.04273  -0.04242   0.00281   0.07724   0.09754
 Alpha virt. eigenvalues --    0.10393   0.12365   0.13052   0.13708   0.14097
 Alpha virt. eigenvalues --    0.14936   0.15469   0.16574   0.17179   0.17933

  Beta  occ. eigenvalues -- -216.01312 -66.42393 -66.42366 -24.89758 -24.83043
  Beta  occ. eigenvalues --  -24.83020 -24.82914 -24.82837 -21.17739 -21.17715
  Beta  occ. eigenvalues --  -21.16264 -19.29244 -19.27606 -19.27556 -10.30646
  Beta  occ. eigenvalues --  -10.30136 -10.29820 -10.28611  -5.51846  -5.51820
  Beta  occ. eigenvalues --   -3.86510  -3.86483  -3.86413  -3.86388  -3.86302
  Beta  occ. eigenvalues --   -3.86276  -2.98554  -1.93147  -1.92911  -1.89615
  Beta  occ. eigenvalues --   -1.31481  -1.31372  -1.29427  -1.29399  -1.14586
  Beta  occ. eigenvalues --   -1.09017  -1.08977  -0.91427  -0.82141  -0.73207
  Beta  occ. eigenvalues --   -0.70642  -0.66920  -0.64661  -0.60882  -0.59496
  Beta  occ. eigenvalues --   -0.58905  -0.58432  -0.57638  -0.57093  -0.54715
  Beta  occ. eigenvalues --   -0.53573  -0.53378  -0.53119  -0.53077  -0.52888
  Beta  occ. eigenvalues --   -0.52229  -0.51669  -0.51512  -0.51077  -0.50864
  Beta  occ. eigenvalues --   -0.49380  -0.47335  -0.46761  -0.46545  -0.45171
  Beta  occ. eigenvalues --   -0.44666  -0.44556  -0.43918  -0.43305  -0.37536
  Beta virt. eigenvalues --   -0.03083  -0.00617   0.00421   0.00745   0.01790
  Beta virt. eigenvalues --    0.01977   0.04073   0.08307   0.10382   0.11228
  Beta virt. eigenvalues --    0.12903   0.13212   0.13939   0.14373   0.15202

 Mulliken charges and spin densities:
               1          2
     1  Cr   0.718283   3.161154
     2  O   -0.567275   0.014681
     3  O   -0.566814   0.013928
     4  O   -0.447437   0.000687
     5  Si   1.016742   0.007664
     6  Si   1.018345   0.007782
     7  C   -0.195901  -0.223059
     8  C   -0.307754   0.025469
     9  H    0.135165   0.009343
    10  H    0.120467   0.012558
    11  C   -0.174409  -0.110096
    12  H    0.126833  -0.001601
    13  H    0.137467  -0.001100
    14  C   -0.362087   1.079990
    15  H    0.150751   0.064393
    16  H    0.119922   0.017320
    17  H    0.145031  -0.038759
    18  H    0.144003  -0.040568
    19  F   -0.306872   0.000533
    20  F   -0.298630  -0.000425
    21  F   -0.299253  -0.000391
    22  F   -0.306577   0.000497
 Sum of Mulliken charges =   0.00000   4.00000

 Dipole moment (field-independent basis, Debye):
    X=              1.9018    Y=             -1.3252    Z=              5.7193  Tot=              6.1712
 Quadrupole moment (field-independent basis, Debye-Ang):
   XX=           -114.9146   YY=           -109.3493   ZZ=            -76.1791
   XY=              5.6440   XZ=              5.0224   YZ=             13.7923

  Exact polarizability: 108.036   8.859 117.685   8.530  16.952 117.622
 Approx polarizability: 112.363   3.299 116.850   2.430   8.987 115.094

                      1                      2                      3
                      A                      A                      A
 Frequencies --      0.0215                 0.0324                 0.0994
 Red. masses --************           2847430.1890           ************
 Frc consts  --      0.0060                 0.0018                 0.2347
 IR Inten    --      0.0000                 0.0000                 0.0000

                      4                      5                      6
                      A                      A                      A
 Frequencies --      0.1157                 0.1739                 0.2119
 Red. masses --2328688.7856           ************           ************
 Frc consts  --      0.0184                 0.2036                 0.7505
 IR Inten    --      0.0000                 0.0000                 0.0000

                      7                      8                      9
                      A                      A                      A
 Frequencies --     16.1676                22.1341                37.1659
 Red. masses --      4.4324                 3.8426                 2.8809
 Frc consts  --      0.0007                 0.0011                 0.0023
 IR Inten    --      0.2108                 0.0295                 0.5466

                     10                     11                     12
                      A                      A                      A
 Frequencies --     62.2115                91.4558               124.5905
 Red. masses --      4.6693                 3.7330                 1.3068
 Frc consts  --      0.0106                 0.0184                 0.0120
 IR Inten    --      1.4391                 0.4004                 0.2213

                     13                     14                     15
                      A                      A                      A
 Frequencies --    136.9864               153.5887               163.9353
 Red. masses --      2.4691                 5.4049                 3.3005
 Frc consts  --      0.0273                 0.0751                 0.0523
 IR Inten    --      1.6056                 1.8487                 2.6384

                     16                     17                     18
                      A                      A                      A
 Frequencies --    173.0543               216.6143               236.4967
 Red. masses --      8.8365                13.2942                 6.4612
 Frc consts  --      0.1559                 0.3675                 0.2129
 IR Inten    --      0.2455                33.0389                 0.3531

                     19                     20                     21
                      A                      A                      A
 Frequencies --    245.3173               253.7337               270.4231
 Red. masses --      5.7495                16.2275                 4.1743
 Frc consts  --      0.2039                 0.6155                 0.1799
 IR Inten    --      1.0288                 0.3314                 0.7255

                     22                     23                     24
                      A                      A                      A
 Frequencies --    301.2868               417.3504               509.6873
 Red. masses --     11.4153                 2.2269                 1.8842
 Frc consts  --      0.6105                 0.2285                 0.2884
 IR Inten    --     36.0512                11.7855                80.3754

                     25                     26                     27
                      A                      A                      A
 Frequencies --    509.7327               551.5221               561.8482
 Red. masses --      3.5036                12.8884                 2.6290
 Frc consts  --      0.5364                 2.3098                 0.4890
 IR Inten    --    156.9806                79.7579                 7.5723

                     28                     29                     30
                      A                      A                      A
 Frequencies --    581.1649               662.4154               682.2379
 Red. masses --      1.3862                18.4081                10.5926
 Frc consts  --      0.2758                 4.7590                 2.9048
 IR Inten    --      0.9979                14.8387                71.5819

                     31                     32                     33
                      A                      A                      A
 Frequencies --    701.2776               721.9457               798.8175
 Red. masses --     26.7478                26.6661                24.1800
 Frc consts  --      7.7503                 8.1888                 9.0908
 IR Inten    --      3.5722               305.6961                15.6181

                     34                     35                     36
                      A                      A                      A
 Frequencies --    818.6702               850.3991               883.0515
 Red. masses --      1.3598                 1.4089                 2.3166
 Frc consts  --      0.5370                 0.6003                 1.0643
 IR Inten    --      0.3118                 3.2771                 1.1520

                     37                     38                     39
                      A                      A                      A
 Frequencies --    940.9444              1013.3742              1018.9581
 Red. masses --     18.7507                 1.3021                 7.0526
 Frc consts  --      9.7813                 0.7878                 4.3143
 IR Inten    --     58.5899                51.6466               813.3440

                     40                     41                     42
                      A                      A                      A
 Frequencies --   1028.9724              1092.6342              1096.1200
 Red. masses --      2.9188                 2.2165                11.7456
 Frc consts  --      1.8208                 1.5591                 8.3146
 IR Inten    --     81.4693                54.8525               500.3893

                     43                     44                     45
                      A                      A                      A
 Frequencies --   1118.4659              1196.5224              1224.8987
 Red. masses --      1.6648                 1.6372                 1.2373
 Frc consts  --      1.2270                 1.3810                 1.0938
 IR Inten    --      6.7301                 0.2314                10.9656

                     46                     47                     48
                      A                      A                      A
 Frequencies --   1321.3882              1375.3526              1386.9838
 Red. masses --      1.2105                 1.2961                 1.3041
 Frc consts  --      1.2453                 1.4444                 1.4781
 IR Inten    --      0.9693                 0.3830                 1.8017

                     49                     50                     51
                      A                      A                      A
 Frequencies --   1431.3325              1469.5945              1476.0122
 Red. masses --      1.1434                 1.1296                 1.1372
 Frc consts  --      1.3801                 1.4373                 1.4598
 IR Inten    --      5.9150                 6.2516                 2.8343

                     52                     53                     54
                      A                      A                      A
 Frequencies --   1507.2676              2978.8302              2991.3114
 Red. masses --      1.0919                 1.0703                 1.0541
 Frc consts  --      1.4616                 5.5958                 5.5572
 IR Inten    --     12.7432                29.4932                11.7408

                     55                     56                     57
                      A                      A                      A
 Frequencies --   3050.7296              3056.8201              3066.6422
 Red. masses --      1.0997                 1.0753                 1.0762
 Frc consts  --      6.0300                 5.9201                 5.9631
 IR Inten    --     14.8636                 1.8231                24.1726

                     58                     59                     60
                      A                      A                      A
 Frequencies --   3112.2259              3155.9874              3264.1111
 Red. masses --      1.1045                 1.0519                 1.1182
 Frc consts  --      6.3031                 6.1728                 7.0194
 IR Inten    --     15.1461                11.4834                12.2173

 - Thermochemistry -
 -------------------
 Temperature   373.150 Kelvin.  Pressure   1.00000 Atm.
 Atom     1 has atomic number 24 and mass  51.94051

 Molecular mass: *********** amu.
 Principal axes and moments of inertia in atomic units:
                           1         2         3
     Eigenvalues --  ******************************
           X            0.93719   0.16838   0.30549
           Y           -0.01416   0.89343  -0.44898
           Z           -0.34854   0.41645   0.83970
 This molecule is an asymmetric top.
 Rotational symmetry number  1.
 Warning -- assumption of classical behavior for rotation
           may cause significant error
 Rotational temperatures (Kelvin)      0.00000     0.00000     0.00000
 Rotational constants (GHZ):           0.00000     0.00000     0.00000
 Zero-point vibrational energy     335740.4 (Joules/Mol)
                                   80.24389 (Kcal/Mol)
 Warning -- explicit consideration of  32 degrees of freedom as
           vibrations may cause significant error
 Vibrational temperatures:      0.03     0.05     0.14     0.17     0.25
          (Kelvin)              0.30    23.26    31.85    53.47    89.51
                              131.58   179.26   197.09   220.98   235.87
                              248.99   311.66   340.27   352.96   365.07
                              389.08   433.48   600.47   733.33   733.39
                              793.52   808.37   836.17   953.07   981.59
                             1008.98  1038.72  1149.32  1177.88  1223.53
                             1270.51  1353.81  1458.02  1466.05  1480.46
                             1572.05  1577.07  1609.22  1721.53  1762.35
                             1901.18  1978.82  1995.56  2059.37  2114.42
                             2123.65  2168.62  4285.87  4303.82  4389.31
                             4398.08  4412.21  4477.79  4540.76  4696.32

 Zero-point correction=                           0.127877 (Hartree/Particle)
 Thermal correction to Energy=                    0.157164
 Thermal correction to Enthalpy=                  0.158346
 Thermal correction to Gibbs Free Energy=        -0.044511
 Sum of electronic and zero-point Energies=          -2405.914922
 Sum of electronic and thermal Energies=             -2405.885634
 Sum of electronic and thermal Enthalpies=           -2405.884453
 Sum of electronic and thermal Free Energies=        -2406.087310

                     E (Thermal)             CV                S
                      KCal/Mol        Cal/Mol-Kelvin    Cal/Mol-Kelvin
 Total                   98.622             71.934            341.136
 Electronic               0.000              0.000              3.198
 Translational            1.112              2.981             86.146
 Rotational               1.112              2.981             75.403
 Vibrational             96.397             65.972            176.388
 Vibration     1          0.742              1.987             20.664
 Vibration     2          0.742              1.987             19.847
 Vibration     3          0.742              1.987             17.620
 Vibration     4          0.742              1.987             17.318
 Vibration     5          0.742              1.987             16.509
 Vibration     6          0.742              1.987             16.116
 Vibration     7          0.742              1.987              7.502
 Vibration     8          0.742              1.986              6.878
 Vibration     9          0.743              1.984              5.850
 Vibration    10          0.745              1.978              4.829
 Vibration    11          0.749              1.967              4.069
 Vibration    12          0.756              1.949              3.463
 Vibration    13          0.759              1.942              3.279
 Vibration    14          0.763              1.930              3.057
 Vibration    15          0.766              1.922              2.932
 Vibration    16          0.769              1.915              2.828
 Vibration    17          0.784              1.876              2.402
 Vibration    18          0.792              1.855              2.238
 Vibration    19          0.796              1.845              2.170
 Vibration    20          0.800              1.836              2.108
 Vibration    21          0.808              1.817              1.992
 Vibration    22          0.823              1.778              1.797
 Vibration    23          0.895              1.609              1.243
 Vibration    24          0.966              1.454              0.936
 Vibration    25          0.966              1.454              0.936
 Vibration    26          1.002              1.381              0.825
 Vibration    27          1.011              1.363              0.799
 Vibration    28          1.029              1.329              0.754
 Vibration    29          1.107              1.185              0.589
 Vibration    30          1.127              1.150              0.554
 Vibration    31          1.146              1.117              0.523
 Vibration    32          1.168              1.081              0.491

 Normal termination of Gaussian 09 at Thu Aug 24 16:37:35 2017.
