 Gaussian 09, Revision D.01,
 Gaussian 09:  ES64L-G09RevD.01 24-Apr-2013

 -------------------------------------------------------
 #p wb97xd/gen nosymm freq temp=373.15 punch=derivatives
 -------------------------------------------------------

 ------
 CrSite
 ------
 Symbolic Z-matrix:
 Charge =  0 Multiplicity = 5

                          Input orientation:
 ---------------------------------------------------------------------
 Center     Atomic      Atomic             Coordinates (Angstroms)
 Number     Number       Type             X           Y           Z
 ---------------------------------------------------------------------
      1         24           0       -0.095472    2.716987    3.395667
      2          8           0        0.903341    2.771463    1.882251
      3          8           0       -1.832528    2.767467    2.875230
      4          8           0       -1.147483    3.823658    0.502908
      5         14           0       -2.371855    3.509670    1.541693
      6         14           0        0.452501    3.480397    0.499218
      7          6           0        0.303414    4.345444    4.447414
      8          6           0        0.014688    5.645347    3.707483
      9          1           0        1.367439    4.255264    4.710071
     10          1           0       -0.291067    4.261305    5.368692
     11          6           0        0.389316    6.891094    4.522651
     12          1           0        0.572429    5.667879    2.766446
     13          1           0       -1.045500    5.696520    3.449478
     14          6           0        1.845579    7.007992    4.787856
     15          1           0        0.039020    7.775676    3.968687
     16          1           0       -0.169451    6.896138    5.464254
     17          1           0        2.217084    7.560210    5.640662
     18          1           0        2.561751    6.685877    4.040751
     19          9           0       -3.090888    4.914737    1.908546
     20          9           0       -3.494745    2.623997    0.788738
     21          9           0        0.782815    2.538077   -0.771037
     22          9           0        1.267339    4.859529    0.252034
 ---------------------------------------------------------------------

 SCF Done:  E(UwB97XD) =  -2406.04275736     A.U. after   27 cycles

 Alpha  occ. eigenvalues -- -216.01381 -66.42413 -66.42389 -24.94454 -24.83050
 Alpha  occ. eigenvalues --  -24.83026 -24.82910 -24.82833 -21.21376 -21.21336
 Alpha  occ. eigenvalues --  -21.20928 -19.29244 -19.27648 -19.27604 -10.30369
 Alpha  occ. eigenvalues --  -10.30211 -10.29770 -10.29725  -5.51863  -5.51839
 Alpha  occ. eigenvalues --   -3.86524  -3.86500  -3.86429  -3.86406  -3.86326
 Alpha  occ. eigenvalues --   -3.86301  -3.11783  -2.06530  -2.06341  -2.05510
 Alpha  occ. eigenvalues --   -1.31483  -1.31375  -1.29428  -1.29400  -1.14618
 Alpha  occ. eigenvalues --   -1.09256  -1.09198  -0.91890  -0.83236  -0.74470
 Alpha  occ. eigenvalues --   -0.70689  -0.68122  -0.64849  -0.60948  -0.59627
 Alpha  occ. eigenvalues --   -0.59464  -0.58572  -0.57999  -0.57318  -0.54878
 Alpha  occ. eigenvalues --   -0.54263  -0.53982  -0.53611  -0.53138  -0.53045
 Alpha  occ. eigenvalues --   -0.52325  -0.52073  -0.51780  -0.51280  -0.50924
 Alpha  occ. eigenvalues --   -0.50244  -0.48582  -0.48268  -0.47341  -0.46506
 Alpha  occ. eigenvalues --   -0.46115  -0.45708  -0.44573  -0.43631  -0.39901
 Alpha  occ. eigenvalues --   -0.38642  -0.38097  -0.37706  -0.29471
 Alpha virt. eigenvalues --   -0.04266  -0.04238   0.00283   0.07723   0.09753
 Alpha virt. eigenvalues --    0.10393   0.12363   0.13050   0.13708   0.14097
 Alpha virt. eigenvalues --    0.14935   0.15470   0.16573   0.17184   0.17931

  Beta  occ. eigenvalues -- -216.01297 -66.42407 -66.42383 -24.89724 -24.83047
  Beta  occ. eigenvalues --  -24.83023 -24.82912 -24.82834 -21.17711 -21.17687
  Beta  occ. eigenvalues --  -21.16236 -19.29240 -19.27601 -19.27555 -10.30660
  Beta  occ. eigenvalues --  -10.30138 -10.29825 -10.28616  -5.51855  -5.51831
  Beta  occ. eigenvalues --   -3.86517  -3.86493  -3.86422  -3.86399  -3.86315
  Beta  occ. eigenvalues --   -3.86289  -2.98554  -1.93153  -1.92914  -1.89612
  Beta  occ. eigenvalues --   -1.31478  -1.31370  -1.29425  -1.29397  -1.14580
  Beta  occ. eigenvalues --   -1.09008  -1.08971  -0.91430  -0.82145  -0.73210
  Beta  occ. eigenvalues --   -0.70639  -0.66922  -0.64658  -0.60877  -0.59495
  Beta  occ. eigenvalues --   -0.58901  -0.58430  -0.57639  -0.57091  -0.54715
  Beta  occ. eigenvalues --   -0.53572  -0.53380  -0.53119  -0.53078  -0.52887
  Beta  occ. eigenvalues --   -0.52230  -0.51666  -0.51511  -0.51074  -0.50863
  Beta  occ. eigenvalues --   -0.49384  -0.47335  -0.46761  -0.46545  -0.45170
  Beta  occ. eigenvalues --   -0.44663  -0.44553  -0.43920  -0.43307  -0.37542
  Beta virt. eigenvalues --   -0.03080  -0.00618   0.00423   0.00744   0.01786
  Beta virt. eigenvalues --    0.01973   0.04073   0.08309   0.10380   0.11228
  Beta virt. eigenvalues --    0.12902   0.13210   0.13938   0.14375   0.15201

 Mulliken charges and spin densities:
               1          2
     1  Cr   0.718400   3.160944
     2  O   -0.567360   0.014870
     3  O   -0.566996   0.014212
     4  O   -0.447509   0.000700
     5  Si   1.016703   0.007601
     6  Si   1.018359   0.007758
     7  C   -0.196162  -0.223192
     8  C   -0.307917   0.025504
     9  H    0.135242   0.009335
    10  H    0.120518   0.012536
    11  C   -0.174402  -0.110169
    12  H    0.127061  -0.001650
    13  H    0.137562  -0.001109
    14  C   -0.362037   1.080099
    15  H    0.150769   0.064422
    16  H    0.119952   0.017318
    17  H    0.145051  -0.038712
    18  H    0.143936  -0.040695
    19  F   -0.306776   0.000537
    20  F   -0.298601  -0.000421
    21  F   -0.299290  -0.000386
    22  F   -0.306502   0.000499
 Sum of Mulliken charges =   0.00000   4.00000

 Dipole moment (field-independent basis, Debye):
    X=              1.9030    Y=             -1.3203    Z=              5.7204  Tot=              6.1715
 Quadrupole moment (field-independent basis, Debye-Ang):
   XX=           -114.9117   YY=           -109.3128   ZZ=            -76.1711
   XY=              5.6495   XZ=              5.0257   YZ=             13.8141

  Exact polarizability: 108.111   8.849 117.835   8.501  16.913 117.636
 Approx polarizability: 112.365   3.296 116.859   2.434   8.986 115.100

                      1                      2                      3
                      A                      A                      A
 Frequencies --      0.0196                 0.0324                 0.0989
 Red. masses --************           5481050.1194           ************
 Frc consts  --      0.0044                 0.0034                 0.1535
 IR Inten    --      0.0000                 0.0000                 0.0000

                      4                      5                      6
                      A                      A                      A
 Frequencies --      0.1162                 0.1732                 0.2110
 Red. masses --5396251.8589           7528581.2735           ************
 Frc consts  --      0.0429                 0.1331                 0.6648
 IR Inten    --      0.0000                 0.0000                 0.0000

                      7                      8                      9
                      A                      A                      A
 Frequencies --     18.0969                28.7953                47.4854
 Red. masses --      4.5328                 4.1381                 3.3104
 Frc consts  --      0.0009                 0.0020                 0.0044
 IR Inten    --      0.3517                 0.0459                 0.9478

                     10                     11                     12
                      A                      A                      A
 Frequencies --     65.7416                91.8203               122.4078
 Red. masses --      3.5502                 3.4810                 1.3954
 Frc consts  --      0.0090                 0.0173                 0.0123
 IR Inten    --      0.9641                 0.3087                 0.4621

                     13                     14                     15
                      A                      A                      A
 Frequencies --    141.5537               153.7793               163.1682
 Red. masses --      2.2740                 6.0750                 3.0680
 Frc consts  --      0.0268                 0.0846                 0.0481
 IR Inten    --      3.0346                 2.6683                 1.4427

                     16                     17                     18
                      A                      A                      A
 Frequencies --    171.6305               215.3366               235.2231
 Red. masses --     10.3122                13.0747                 7.0452
 Frc consts  --      0.1790                 0.3572                 0.2297
 IR Inten    --      0.3396                33.6512                 0.3389

                     19                     20                     21
                      A                      A                      A
 Frequencies --    247.2588               252.3311               273.4486
 Red. masses --      6.2614                14.2894                 3.8593
 Frc consts  --      0.2255                 0.5361                 0.1700
 IR Inten    --      1.1645                 0.3703                 0.6148

                     22                     23                     24
                      A                      A                      A
 Frequencies --    301.6646               420.4251               507.8138
 Red. masses --     10.6609                 2.2174                19.4454
 Frc consts  --      0.5716                 0.2309                 2.9544
 IR Inten    --     36.1746                11.3228               192.1538

                     25                     26                     27
                      A                      A                      A
 Frequencies --    514.9645               550.7007               564.3001
 Red. masses --      1.2954                12.8039                 2.6116
 Frc consts  --      0.2024                 2.2878                 0.4900
 IR Inten    --     46.3710                85.1725                 7.8884

                     28                     29                     30
                      A                      A                      A
 Frequencies --    578.5312               657.4330               676.7522
 Red. masses --      1.4167                18.0290                10.0249
 Frc consts  --      0.2794                 4.5912                 2.7051
 IR Inten    --      0.9413                13.0721                76.9439

                     31                     32                     33
                      A                      A                      A
 Frequencies --    698.9297               720.5644               794.3381
 Red. masses --     26.7283                26.6620                24.2218
 Frc consts  --      7.6929                 8.1562                 9.0047
 IR Inten    --      9.8350               305.4007                15.5526

                     34                     35                     36
                      A                      A                      A
 Frequencies --    819.4493               851.6171               884.6010
 Red. masses --      1.3614                 1.4090                 2.2814
 Frc consts  --      0.5386                 0.6021                 1.0518
 IR Inten    --      0.3586                 3.4318                 1.1336

                     37                     38                     39
                      A                      A                      A
 Frequencies --    955.9354              1013.8717              1026.5267
 Red. masses --     18.8659                 1.2626                 3.1475
 Frc consts  --     10.1575                 0.7647                 1.9541
 IR Inten    --     46.5317                11.2519               142.8274

                     40                     41                     42
                      A                      A                      A
 Frequencies --   1035.2050              1090.2313              1094.4099
 Red. masses --      6.5964                11.3626                 2.3427
 Frc consts  --      4.1650                 7.9573                 1.6532
 IR Inten    --    776.2579               511.2158                57.0758

                     43                     44                     45
                      A                      A                      A
 Frequencies --   1119.0575              1198.4914              1225.6628
 Red. masses --      1.6355                 1.6403                 1.2441
 Frc consts  --      1.2067                 1.3882                 1.1011
 IR Inten    --     11.3812                 0.1472                10.7292

                     46                     47                     48
                      A                      A                      A
 Frequencies --   1320.5868              1374.8358              1386.8461
 Red. masses --      1.2010                 1.2912                 1.3214
 Frc consts  --      1.2341                 1.4379                 1.4974
 IR Inten    --      0.8713                 0.2387                 2.0708

                     49                     50                     51
                      A                      A                      A
 Frequencies --   1428.3020              1471.0580              1478.7668
 Red. masses --      1.1454                 1.0943                 1.1724
 Frc consts  --      1.3767                 1.3952                 1.5105
 IR Inten    --      5.9254                 7.4955                 1.6647

                     52                     53                     54
                      A                      A                      A
 Frequencies --   1509.7847              2979.2877              2996.4610
 Red. masses --      1.0924                 1.0708                 1.0541
 Frc consts  --      1.4671                 5.6001                 5.5764
 IR Inten    --     12.2903                29.1585                12.4688

                     55                     56                     57
                      A                      A                      A
 Frequencies --   3055.0826              3061.0294              3071.0195
 Red. masses --      1.0984                 1.0753                 1.0777
 Frc consts  --      6.0404                 5.9363                 5.9886
 IR Inten    --     14.5954                 1.4418                25.4748

                     58                     59                     60
                      A                      A                      A
 Frequencies --   3115.8156              3162.5323              3271.0619
 Red. masses --      1.1038                 1.0521                 1.1180
 Frc consts  --      6.3135                 6.1998                 7.0479
 IR Inten    --     16.2064                11.4795                12.5191

 - Thermochemistry -
 -------------------
 Temperature   373.150 Kelvin.  Pressure   1.00000 Atm.
 Atom     1 has atomic number 24 and mass  51.94051

 Molecular mass: *********** amu.
 Principal axes and moments of inertia in atomic units:
                           1         2         3
     Eigenvalues --  ******************************
           X            0.93719   0.16838   0.30549
           Y           -0.01416   0.89343  -0.44898
           Z           -0.34854   0.41645   0.83970
 This molecule is an asymmetric top.
 Rotational symmetry number  1.
 Warning -- assumption of classical behavior for rotation
           may cause significant error
 Rotational temperatures (Kelvin)      0.00000     0.00000     0.00000
 Rotational constants (GHZ):           0.00000     0.00000     0.00000
 Zero-point vibrational energy     336226.5 (Joules/Mol)
                                   80.36005 (Kcal/Mol)
 Warning -- explicit consideration of  32 degrees of freedom as
           vibrations may cause significant error
 Vibrational temperatures:      0.03     0.05     0.14     0.17     0.25
          (Kelvin)              0.30    26.04    41.43    68.32    94.59
                              132.11   176.12   203.66   221.25   234.76
                              246.94   309.82   338.43   355.75   363.05
                              393.43   434.03   604.90   730.63   740.92
                              792.33   811.90   832.38   945.90   973.69
                             1005.60  1036.73  1142.87  1179.00  1225.29
                             1272.74  1375.38  1458.73  1476.94  1489.43
                             1568.60  1574.61  1610.07  1724.36  1763.45
                             1900.03  1978.08  1995.36  2055.01  2116.52
                             2127.61  2172.24  4286.53  4311.23  4395.58
                             4404.13  4418.51  4482.96  4550.17  4706.32

 Zero-point correction=                           0.128062 (Hartree/Particle)
 Thermal correction to Energy=                    0.157293
 Thermal correction to Enthalpy=                  0.158475
 Thermal correction to Gibbs Free Energy=        -0.043683
 Sum of electronic and zero-point Energies=          -2405.914695
 Sum of electronic and thermal Energies=             -2405.885464
 Sum of electronic and thermal Enthalpies=           -2405.884283
 Sum of electronic and thermal Free Energies=        -2406.086440

                     E (Thermal)             CV                S
                      KCal/Mol        Cal/Mol-Kelvin    Cal/Mol-Kelvin
 Total                   98.703             71.906            339.959
 Electronic               0.000              0.000              3.198
 Translational            1.112              2.981             86.146
 Rotational               1.112              2.981             75.403
 Vibrational             96.478             65.945            175.211
 Vibration     1          0.742              1.987             20.842
 Vibration     2          0.742              1.987             19.847
 Vibration     3          0.742              1.987             17.631
 Vibration     4          0.742              1.987             17.310
 Vibration     5          0.742              1.987             16.516
 Vibration     6          0.742              1.987             16.124
 Vibration     7          0.742              1.986              7.278
 Vibration     8          0.742              1.985              6.356
 Vibration     9          0.744              1.982              5.364
 Vibration    10          0.745              1.977              4.720
 Vibration    11          0.749              1.967              4.061
 Vibration    12          0.755              1.951              3.498
 Vibration    13          0.760              1.939              3.215
 Vibration    14          0.763              1.930              3.055
 Vibration    15          0.766              1.923              2.941
 Vibration    16          0.768              1.916              2.843
 Vibration    17          0.784              1.877              2.413
 Vibration    18          0.792              1.856              2.248
 Vibration    19          0.797              1.843              2.156
 Vibration    20          0.799              1.838              2.118
 Vibration    21          0.809              1.813              1.972
 Vibration    22          0.823              1.778              1.795
 Vibration    23          0.897              1.604              1.231
 Vibration    24          0.965              1.458              0.942
 Vibration    25          0.971              1.445              0.921
 Vibration    26          1.001              1.383              0.827
 Vibration    27          1.013              1.359              0.793
 Vibration    28          1.026              1.334              0.760
 Vibration    29          1.102              1.194              0.598
 Vibration    30          1.121              1.160              0.564
 Vibration    31          1.144              1.121              0.527
 Vibration    32          1.167              1.084              0.493

 Normal termination of Gaussian 09 at Wed Aug 23 17:32:28 2017.
