 Gaussian 09, Revision D.01,
 Gaussian 09:  ES64L-G09RevD.01 24-Apr-2013

 ----------------------------------------------------------------------
 #p freq temp=373.15 wb97xd/gen nosymm scf=maxcycles=1000 punch=derivat
 ives
 ----------------------------------------------------------------------

 -------------------
 Title Card Required
 -------------------
 Symbolic Z-matrix:
 Charge =  0 Multiplicity = 2

                          Input orientation:
 ---------------------------------------------------------------------
 Center     Atomic      Atomic             Coordinates (Angstroms)
 Number     Number       Type             X           Y           Z
 ---------------------------------------------------------------------
      1          1           0       -2.835348    3.964397    2.815579
      2          1           0        3.646940    3.788898    6.613598
      3          1           0        2.101239    3.113369    7.140149
      4          1           0        2.298918    4.863042    7.002674
      5          1           0        3.785084    5.327112    3.912364
      6          1           0        2.297364    6.244518    4.125356
      7          1           0        2.506600    5.193525    2.713883
      8          1           0        3.721882    2.129512    4.107212
      9          1           0        2.441622    2.237938    2.894209
     10          1           0        2.163865    1.348683    4.403074
     11          1           0       -3.240848    5.604864    5.974858
     12          1           0       -2.386441    4.297713    6.804562
     13          1           0       -3.029956    4.030891    5.192322
     14          1           0       -0.574139    7.118558    3.343844
     15          1           0       -2.181929    6.367469    3.119512
     16          1           0       -0.653555    7.393414    6.480022
     17          1           0        0.920797    6.865285    5.883692
     18          1           0        0.167661    6.023229    7.244013
     19          6           0        0.124624    3.845774    4.560756
     20          1           0       -0.354049    2.897565    4.822748
     21         14           0        1.986816    3.818331    4.750535
     22         14           0       -0.908707    5.353428    5.098280
     23          6           0        2.562428    3.906809    6.547413
     24          6           0        2.700227    5.286994    3.787505
     25          6           0        2.642878    2.229356    3.968541
     26          6           0       -2.548106    4.772817    5.834569
     27          6           0       -1.135470    6.180095    3.385037
     28          6           0       -0.029732    6.517365    6.290879
     29         24           0       -0.272045    4.521243    2.766999
     30          8           0        0.572578    4.130113    1.161564
     31          8           0       -2.066588    3.597842    2.371344
     32          8           0       -1.093475    2.231209    0.335123
     33         14           0       -2.333375    2.260788    1.366798
     34         14           0        0.373029    3.010023    0.025366
     35          8           0        1.528661    1.824193   -0.017492
     36          8           0        0.329600    3.677299   -1.481629
     37          8           0       -3.798190    2.422088    0.623798
     38          8           0       -2.438175    0.962776    2.368284
     39          1           0        1.472018    1.113006    0.626407
     40          1           0        0.721006    3.163209   -2.193283
     41          1           0       -3.813801    2.949512   -0.179499
     42          1           0       -3.058420    0.287818    2.079215
 ---------------------------------------------------------------------

 SCF Done:  E(UwB97XD) =  -3010.14324686     A.U. after   64 cycles

 Alpha  occ. eigenvalues -- -215.94309 -66.39944 -66.35908 -66.27580 -66.26485
 Alpha  occ. eigenvalues --  -24.86108 -21.14675 -21.12526 -21.12116 -19.31292
 Alpha  occ. eigenvalues --  -19.28244 -19.27743 -19.26318 -19.24778 -19.24457
 Alpha  occ. eigenvalues --  -19.21213 -10.26581 -10.26241 -10.25211 -10.25120
 Alpha  occ. eigenvalues --  -10.24980 -10.24260 -10.24137  -5.49477  -5.45418
 Alpha  occ. eigenvalues --   -5.38091  -5.36993  -3.84109  -3.84027  -3.83968
 Alpha  occ. eigenvalues --   -3.80077  -3.79979  -3.79867  -3.72592  -3.72547
 Alpha  occ. eigenvalues --   -3.72518  -3.71478  -3.71457  -3.71426  -2.99999
 Alpha  occ. eigenvalues --   -1.96770  -1.92991  -1.91956  -1.17520  -1.14149
 Alpha  occ. eigenvalues --   -1.12512  -1.12482  -1.09457  -1.09047  -1.02922
 Alpha  occ. eigenvalues --   -0.81945  -0.80490  -0.78042  -0.76944  -0.76700
 Alpha  occ. eigenvalues --   -0.74830  -0.72648  -0.71631  -0.66392  -0.65861
 Alpha  occ. eigenvalues --   -0.63355  -0.61085  -0.60281  -0.56403  -0.55872
 Alpha  occ. eigenvalues --   -0.53697  -0.52466  -0.51078  -0.50956  -0.50077
 Alpha  occ. eigenvalues --   -0.49745  -0.49491  -0.49267  -0.48885  -0.48763
 Alpha  occ. eigenvalues --   -0.48494  -0.47853  -0.47321  -0.46855  -0.46762
 Alpha  occ. eigenvalues --   -0.46514  -0.46324  -0.45644  -0.45331  -0.44880
 Alpha  occ. eigenvalues --   -0.44650  -0.44241  -0.43251  -0.42486  -0.41674
 Alpha  occ. eigenvalues --   -0.40923  -0.39384  -0.39241  -0.38312  -0.37931
 Alpha  occ. eigenvalues --   -0.36922  -0.35401  -0.32341  -0.31926  -0.30604
 Alpha  occ. eigenvalues --   -0.27313
 Alpha virt. eigenvalues --    0.01848   0.03203   0.04942   0.06049   0.09130
 Alpha virt. eigenvalues --    0.09543   0.10911   0.11507   0.12636   0.13110
 Alpha virt. eigenvalues --    0.13999   0.14313   0.14657   0.15047   0.15856

  Beta  occ. eigenvalues -- -215.94283 -66.39944 -66.35905 -66.27579 -66.26476
  Beta  occ. eigenvalues --  -24.84455 -21.12815 -21.11914 -21.10387 -19.31271
  Beta  occ. eigenvalues --  -19.28245 -19.27742 -19.26317 -19.24777 -19.24458
  Beta  occ. eigenvalues --  -19.21225 -10.26585 -10.26247 -10.25212 -10.25118
  Beta  occ. eigenvalues --  -10.24981 -10.24344 -10.24199  -5.49478  -5.45415
  Beta  occ. eigenvalues --   -5.38090  -5.36983  -3.84110  -3.84027  -3.83968
  Beta  occ. eigenvalues --   -3.80076  -3.79977  -3.79861  -3.72593  -3.72542
  Beta  occ. eigenvalues --   -3.72517  -3.71460  -3.71445  -3.71419  -2.95342
  Beta  occ. eigenvalues --   -1.90524  -1.89499  -1.86689  -1.17480  -1.14129
  Beta  occ. eigenvalues --   -1.12511  -1.12480  -1.09454  -1.09047  -1.02925
  Beta  occ. eigenvalues --   -0.81964  -0.80495  -0.78054  -0.76942  -0.76699
  Beta  occ. eigenvalues --   -0.74949  -0.72734  -0.71635  -0.66373  -0.65854
  Beta  occ. eigenvalues --   -0.63342  -0.61084  -0.60280  -0.56371  -0.55851
  Beta  occ. eigenvalues --   -0.53532  -0.52309  -0.50990  -0.50897  -0.50053
  Beta  occ. eigenvalues --   -0.49741  -0.49457  -0.49265  -0.48834  -0.48700
  Beta  occ. eigenvalues --   -0.48489  -0.47834  -0.47319  -0.46848  -0.46673
  Beta  occ. eigenvalues --   -0.46510  -0.46308  -0.45643  -0.45322  -0.44835
  Beta  occ. eigenvalues --   -0.44593  -0.43999  -0.43228  -0.42428  -0.41431
  Beta  occ. eigenvalues --   -0.40862  -0.39222  -0.39092  -0.38278  -0.37959
  Beta  occ. eigenvalues --   -0.36825  -0.35088  -0.32199  -0.31320  -0.25224
  Beta virt. eigenvalues --    0.03709   0.04034   0.05013   0.06068   0.07352
  Beta virt. eigenvalues --    0.09165   0.09585   0.10947   0.11603   0.12653
  Beta virt. eigenvalues --    0.13158   0.14034   0.14343   0.14805   0.15198

 Mulliken charges and spin densities:
               1          2
     1  H    0.348408  -0.000148
     2  H    0.132641   0.000263
     3  H    0.132460  -0.000177
     4  H    0.136760  -0.000130
     5  H    0.151866  -0.000162
     6  H    0.137537   0.000315
     7  H    0.179076   0.000358
     8  H    0.136656   0.000065
     9  H    0.118470   0.000037
    10  H    0.132172   0.000013
    11  H    0.146730  -0.000085
    12  H    0.147491   0.000144
    13  H    0.106360   0.000098
    14  H    0.153249   0.003333
    15  H    0.127192  -0.000931
    16  H    0.150962  -0.000073
    17  H    0.143418   0.000187
    18  H    0.146043  -0.000272
    19  C   -0.413489  -0.065750
    20  H    0.179185   0.016616
    21  Si   0.585672   0.011769
    22  Si   0.462446  -0.000671
    23  C   -0.522235   0.001907
    24  C   -0.606196  -0.001556
    25  C   -0.543504   0.000465
    26  C   -0.515187  -0.001572
    27  C   -0.519228  -0.072193
    28  C   -0.524863  -0.003359
    29  Cr   0.284352   1.112680
    30  O   -0.536059  -0.006360
    31  O   -0.502362   0.002082
    32  O   -0.424296   0.000129
    33  Si   0.765417   0.000129
    34  Si   0.818565   0.002972
    35  O   -0.508940   0.000083
    36  O   -0.496082  -0.000155
    37  O   -0.493486  -0.000069
    38  O   -0.470128  -0.000022
    39  H    0.308060  -0.000017
    40  H    0.310181   0.000014
    41  H    0.318773   0.000017
    42  H    0.315914   0.000027
 Sum of Mulliken charges =   0.00000   1.00000

 Dipole moment (field-independent basis, Debye):
    X=             -3.3951    Y=             -2.1276    Z=              0.4437  Tot=              4.0311
 Quadrupole moment (field-independent basis, Debye-Ang):
   XX=           -144.4680   YY=           -164.4213   ZZ=           -147.7287
   XY=            -10.4885   XZ=             -3.1206   YZ=              2.7273

  Exact polarizability: 215.189 -11.442 203.901   5.118  19.117 236.012
 Approx polarizability: 217.539 -11.785 225.304  -2.117   4.021 242.518

 ******    1 imaginary frequencies (negative Signs) ******

                      1                      2                      3
                      A                      A                      A
 Frequencies --     -0.0975                 0.0324                 0.0596
 Red. masses --   2494.4463            132192.6098             99584.1802
 Frc consts  --      0.0000                 0.0001                 0.0002
 IR Inten    --      0.0000                 0.0000                 0.0000

                      4                      5                      6
                      A                      A                      A
 Frequencies --      0.1120                 0.1446                 0.1661
 Red. masses -- 584497.2986            826170.2076            130571.3118
 Frc consts  --      0.0043                 0.0102                 0.0021
 IR Inten    --      0.0000                 0.0000                 0.0000

                      7                      8                      9
                      A                      A                      A
 Frequencies --      0.1937                 0.2444                 0.2655
 Red. masses -- 118312.4033           1141789.5741             92409.3484
 Frc consts  --      0.0026                 0.0402                 0.0038
 IR Inten    --      0.0000                 0.0000                 0.0000

                     10                     11                     12
                      A                      A                      A
 Frequencies --      0.2959                 0.3996                 0.5372
 Red. masses -- 167389.7133            329777.5734             32289.5447
 Frc consts  --      0.0086                 0.0310                 0.0055
 IR Inten    --      0.0000                 0.0001                 0.0000

                     13                     14                     15
                      A                      A                      A
 Frequencies --      0.6359                 0.7133                 1.6896
 Red. masses --  32474.9920             56488.7370             51347.7719
 Frc consts  --      0.0077                 0.0169                 0.0864
 IR Inten    --      0.0000                 0.0000                 0.0000

                     16                     17                     18
                      A                      A                      A
 Frequencies --      1.6963                 1.7046                 1.7118
 Red. masses -- 101448.5084              4664.3488             63041.7162
 Frc consts  --      0.1720                 0.0080                 0.1088
 IR Inten    --      0.0000                 0.0000                 0.0000

                     19                     20                     21
                      A                      A                      A
 Frequencies --      3.6142                14.2686                25.7687
 Red. masses --      4.8333                 4.0256                 4.0705
 Frc consts  --      0.0000                 0.0005                 0.0016
 IR Inten    --      0.0056                 0.0447                 0.0310

                     22                     23                     24
                      A                      A                      A
 Frequencies --     35.6787                54.6849                63.5256
 Red. masses --      4.4359                 3.3730                 3.8658
 Frc consts  --      0.0033                 0.0059                 0.0092
 IR Inten    --      0.0096                 0.1221                 0.0275

                     25                     26                     27
                      A                      A                      A
 Frequencies --     83.6943               103.0968               110.6774
 Red. masses --      4.4784                 3.5455                 3.0512
 Frc consts  --      0.0185                 0.0222                 0.0220
 IR Inten    --      0.3070                 1.3170                 0.8189

                     28                     29                     30
                      A                      A                      A
 Frequencies --    140.8792               142.6717               148.2323
 Red. masses --      1.7215                 1.2126                 2.8853
 Frc consts  --      0.0201                 0.0145                 0.0374
 IR Inten    --      5.1340                 0.6311                 3.7345

                     31                     32                     33
                      A                      A                      A
 Frequencies --    152.2931               162.3136               164.9487
 Red. masses --      2.8980                 1.2141                 2.1850
 Frc consts  --      0.0396                 0.0188                 0.0350
 IR Inten    --      1.6898                 0.7410                 0.2900

                     34                     35                     36
                      A                      A                      A
 Frequencies --    173.8559               178.1369               187.9736
 Red. masses --      2.2776                 2.4108                 2.1837
 Frc consts  --      0.0406                 0.0451                 0.0455
 IR Inten    --      1.0982                 6.8512                 4.3437

                     37                     38                     39
                      A                      A                      A
 Frequencies --    195.9297               202.6796               207.8254
 Red. masses --      1.5366                 1.3205                 2.2215
 Frc consts  --      0.0348                 0.0320                 0.0565
 IR Inten    --      1.6817                 1.3014                 2.3826

                     40                     41                     42
                      A                      A                      A
 Frequencies --    212.3382               222.5138               225.8993
 Red. masses --      2.1360                 4.3256                 3.0580
 Frc consts  --      0.0567                 0.1262                 0.0919
 IR Inten    --      4.1068                 5.0234                 1.3471

                     43                     44                     45
                      A                      A                      A
 Frequencies --    235.2801               251.7912               259.1037
 Red. masses --      2.7630                 5.6047                 4.2709
 Frc consts  --      0.0901                 0.2094                 0.1689
 IR Inten    --      5.3900                 0.7513                 2.1194

                     46                     47                     48
                      A                      A                      A
 Frequencies --    274.1572               300.4208               332.2809
 Red. masses --     10.8419                 4.8443                 3.4378
 Frc consts  --      0.4801                 0.2576                 0.2236
 IR Inten    --      5.6805                14.2928                36.1261

                     49                     50                     51
                      A                      A                      A
 Frequencies --    364.3285               436.3300               490.7327
 Red. masses --      1.9006                 6.0676                17.7391
 Frc consts  --      0.1486                 0.6806                 2.5169
 IR Inten    --     35.7540                 7.5424               121.8937

                     52                     53                     54
                      A                      A                      A
 Frequencies --    505.9004               517.8672               563.2539
 Red. masses --      6.0976                14.7497                 3.4419
 Frc consts  --      0.9195                 2.3306                 0.6434
 IR Inten    --     21.4294               128.1591                24.6831

                     55                     56                     57
                      A                      A                      A
 Frequencies --    588.5316               628.7124               639.9161
 Red. masses --      3.2787                 5.4237                 1.9912
 Frc consts  --      0.6691                 1.2631                 0.4804
 IR Inten    --     16.7582                 1.6700                20.4072

                     58                     59                     60
                      A                      A                      A
 Frequencies --    664.5165               669.2103               682.6453
 Red. masses --      2.3938                 7.2282                 2.7678
 Frc consts  --      0.6228                 1.9072                 0.7599
 IR Inten    --     35.0403                10.9076                23.6563

                     61                     62                     63
                      A                      A                      A
 Frequencies --    690.8975               698.8182               703.0877
 Red. masses --      8.6577                 1.1797                 2.2770
 Frc consts  --      2.4349                 0.3394                 0.6632
 IR Inten    --    275.6117                 0.2836                 0.5429

                     64                     65                     66
                      A                      A                      A
 Frequencies --    703.4388               708.4802               724.6805
 Red. masses --      2.0651                 1.6032                 3.2069
 Frc consts  --      0.6021                 0.4741                 0.9923
 IR Inten    --     25.0314                 4.8228                33.1819

                     67                     68                     69
                      A                      A                      A
 Frequencies --    728.0365               730.2410               738.3536
 Red. masses --      2.4257                 2.2119                 1.7406
 Frc consts  --      0.7575                 0.6949                 0.5591
 IR Inten    --     39.3677                 5.6011                48.8954

                     70                     71                     72
                      A                      A                      A
 Frequencies --    759.3156               787.8428               803.6637
 Red. masses --      1.5512                 1.4434                 1.4106
 Frc consts  --      0.5269                 0.5279                 0.5368
 IR Inten    --      3.2998                29.3558                11.6416

                     73                     74                     75
                      A                      A                      A
 Frequencies --    808.6340               828.2541               850.9778
 Red. masses --      1.7446                 7.2527                 1.6709
 Frc consts  --      0.6721                 2.9314                 0.7129
 IR Inten    --     23.5025               219.7468                34.5484

                     76                     77                     78
                      A                      A                      A
 Frequencies --    856.2580               867.5206               872.6877
 Red. masses --      1.5364                 1.5314                 1.6806
 Frc consts  --      0.6637                 0.6790                 0.7541
 IR Inten    --     74.3486                 8.7271                78.8800

                     79                     80                     81
                      A                      A                      A
 Frequencies --    876.8594               882.6071               892.8539
 Red. masses --      1.6398                 1.7726                 1.7599
 Frc consts  --      0.7428                 0.8136                 0.8266
 IR Inten    --    117.4635               185.3228               302.5581

                     82                     83                     84
                      A                      A                      A
 Frequencies --   1014.1638              1050.4378              1066.4943
 Red. masses --      6.4712                 1.5293                 1.5945
 Frc consts  --      3.9215                 0.9942                 1.0686
 IR Inten    --    450.5796               282.0571               365.5893

                     85                     86                     87
                      A                      A                      A
 Frequencies --   1112.6707              1292.8620              1296.5276
 Red. masses --      5.1951                 1.2699                 1.2576
 Frc consts  --      3.7895                 1.2506                 1.2456
 IR Inten    --    609.5960                36.5305                34.6002

                     88                     89                     90
                      A                      A                      A
 Frequencies --   1298.5904              1302.7198              1311.3767
 Red. masses --      1.2623                 1.2429                 1.2355
 Frc consts  --      1.2541                 1.2428                 1.2518
 IR Inten    --     29.4992                36.6102                34.3930

                     91                     92                     93
                      A                      A                      A
 Frequencies --   1433.6641              1457.4858              1460.5161
 Red. masses --      1.1090                 1.0515                 1.0527
 Frc consts  --      1.3429                 1.3160                 1.3230
 IR Inten    --      3.5797                 0.8719                 2.1322

                     94                     95                     96
                      A                      A                      A
 Frequencies --   1463.8808              1466.2131              1470.4710
 Red. masses --      1.0509                 1.0517                 1.0498
 Frc consts  --      1.3269                 1.3322                 1.3374
 IR Inten    --      4.5792                 2.5130                 3.6519

                     97                     98                     99
                      A                      A                      A
 Frequencies --   1474.2561              1478.3517              1481.0648
 Red. masses --      1.0524                 1.0486                 1.0496
 Frc consts  --      1.3476                 1.3502                 1.3565
 IR Inten    --      4.1187                 4.9126                 1.9416

                    100                    101                    102
                      A                      A                      A
 Frequencies --   1482.9039              1491.0791              3038.4838
 Red. masses --      1.0501                 1.0478                 1.0565
 Frc consts  --      1.3605                 1.3725                 5.7468
 IR Inten    --      9.3792                 5.6445                32.2664

                    103                    104                    105
                      A                      A                      A
 Frequencies --   3041.8415              3047.7255              3052.8374
 Red. masses --      1.0373                 1.0350                 1.0356
 Frc consts  --      5.6551                 5.6641                 5.6866
 IR Inten    --      3.5606                 8.2413                10.6746

                    106                    107                    108
                      A                      A                      A
 Frequencies --   3053.5513              3059.7724              3097.3187
 Red. masses --      1.0361                 1.0348                 1.0834
 Frc consts  --      5.6918                 5.7077                 6.1235
 IR Inten    --     12.1397                 9.4250                 4.9101

                    109                    110                    111
                      A                      A                      A
 Frequencies --   3101.9911              3119.4372              3128.4912
 Red. masses --      1.1040                 1.0991                 1.0996
 Frc consts  --      6.2587                 6.3017                 6.3411
 IR Inten    --     21.7385                 6.6790                19.4466

                    112                    113                    114
                      A                      A                      A
 Frequencies --   3130.5457              3131.8182              3132.6619
 Red. masses --      1.1007                 1.1007                 1.1003
 Frc consts  --      6.3557                 6.3608                 6.3620
 IR Inten    --      3.1564                 5.2096                31.1583

                    115                    116                    117
                      A                      A                      A
 Frequencies --   3135.3013              3142.8295              3143.9067
 Red. masses --      1.1012                 1.1016                 1.1014
 Frc consts  --      6.3778                 6.4111                 6.4140
 IR Inten    --     14.9966                 3.8434                18.7435

                    118                    119                    120
                      A                      A                      A
 Frequencies --   3149.3728              3150.5378              3883.2189
 Red. masses --      1.0996                 1.1004                 1.0662
 Frc consts  --      6.4260                 6.4355                 9.4724
 IR Inten    --      8.4434                 8.8932                79.1980

 - Thermochemistry -
 -------------------
 Temperature   373.150 Kelvin.  Pressure   1.00000 Atm.
 Atom     1 has atomic number  1 and mass   1.00783

 Molecular mass: *********** amu.
 Principal axes and moments of inertia in atomic units:
                           1         2         3
     Eigenvalues --  ******************************
           X            0.86133  -0.48156   0.16191
           Y            0.21187   0.63012   0.74704
           Z           -0.46177  -0.60914   0.64477
 This molecule is an asymmetric top.
 Rotational symmetry number  1.
 Warning -- assumption of classical behavior for rotation
           may cause significant error
 Rotational temperatures (Kelvin)      0.00000     0.00000     0.00000
 Rotational constants (GHZ):           0.00000     0.00000     0.00000
    1 imaginary frequencies ignored.
 Zero-point vibrational energy     686596.4 (Joules/Mol)
                                  164.10049 (Kcal/Mol)
 Warning -- explicit consideration of  69 degrees of freedom as
           vibrations may cause significant error
 Vibrational temperatures:      0.05     0.09     0.16     0.21     0.24
          (Kelvin)              0.28     0.35     0.38     0.43     0.57
                                0.77     0.91     1.03     2.43     2.44
                                2.45     2.46     5.20    20.53    37.08
                               51.33    78.68    91.40   120.42   148.33
                              159.24   202.69   205.27   213.27   219.12
                              233.53   237.32   250.14   256.30   270.45
                              281.90   291.61   299.01   305.51   320.15
                              325.02   338.52   362.27   372.79   394.45
                              432.24   478.08   524.19   627.78   706.05
                              727.88   745.09   810.40   846.76   904.58
                              920.70   956.09   962.84   982.17   994.05
                             1005.44  1011.59  1012.09  1019.34  1042.65
                             1047.48  1050.65  1062.32  1092.48  1133.53
                             1156.29  1163.44  1191.67  1224.37  1231.96
                             1248.17  1255.60  1261.60  1269.87  1284.62
                             1459.15  1511.34  1534.45  1600.88  1860.14
                             1865.41  1868.38  1874.32  1886.78  2062.72
                             2096.99  2101.35  2106.20  2109.55  2115.68
                             2121.12  2127.02  2130.92  2133.57  2145.33
                             4371.69  4376.53  4384.99  4392.35  4393.37
                             4402.32  4456.35  4463.07  4488.17  4501.20
                             4504.15  4505.98  4507.20  4510.99  4521.82
                             4523.37  4531.24  4532.92  5587.08

 Zero-point correction=                           0.261511 (Hartree/Particle)
 Thermal correction to Energy=                    0.319676
 Thermal correction to Enthalpy=                  0.320858
 Thermal correction to Gibbs Free Energy=         0.001395
 Sum of electronic and zero-point Energies=          -3009.881736
 Sum of electronic and thermal Energies=             -3009.823571
 Sum of electronic and thermal Enthalpies=           -3009.822389
 Sum of electronic and thermal Free Energies=        -3010.141852

                     E (Thermal)             CV                S
                      KCal/Mol        Cal/Mol-Kelvin    Cal/Mol-Kelvin
 Total                  200.600            140.247            537.225
 Electronic               0.000              0.000              1.377
 Translational            1.112              2.981             81.349
 Rotational               1.112              2.981             71.271
 Vibrational            198.375            134.286            383.228
 Vibration     1          0.742              1.987             19.849
 Vibration     2          0.742              1.987             18.635
 Vibration     3          0.742              1.987             17.383
 Vibration     4          0.742              1.987             16.875
 Vibration     5          0.742              1.987             16.600
 Vibration     6          0.742              1.987             16.294
 Vibration     7          0.742              1.987             15.832
 Vibration     8          0.742              1.987             15.668
 Vibration     9          0.742              1.987             15.452
 Vibration    10          0.742              1.987             14.855
 Vibration    11          0.742              1.987             14.267
 Vibration    12          0.742              1.987             13.932
 Vibration    13          0.742              1.987             13.704
 Vibration    14          0.742              1.987             11.990
 Vibration    15          0.742              1.987             11.982
 Vibration    16          0.742              1.987             11.973
 Vibration    17          0.742              1.987             11.964
 Vibration    18          0.742              1.987             10.479
 Vibration    19          0.742              1.987              7.751
 Vibration    20          0.742              1.986              6.577
 Vibration    21          0.743              1.984              5.931
 Vibration    22          0.744              1.980              5.084
 Vibration    23          0.745              1.977              4.788
 Vibration    24          0.748              1.970              4.243
 Vibration    25          0.751              1.961              3.833
 Vibration    26          0.753              1.957              3.694
 Vibration    27          0.760              1.939              3.224
 Vibration    28          0.760              1.938              3.200
 Vibration    29          0.762              1.934              3.126
 Vibration    30          0.763              1.931              3.073
 Vibration    31          0.766              1.924              2.951
 Vibration    32          0.766              1.922              2.920
 Vibration    33          0.769              1.914              2.819
 Vibration    34          0.770              1.911              2.772
 Vibration    35          0.774              1.902              2.670
 Vibration    36          0.776              1.895              2.591
 Vibration    37          0.779              1.889              2.527
 Vibration    38          0.781              1.884              2.480
 Vibration    39          0.782              1.880              2.439
 Vibration    40          0.786              1.870              2.351
 Vibration    41          0.788              1.866              2.323
 Vibration    42          0.792              1.856              2.248
 Vibration    43          0.799              1.838              2.122
 Vibration    44          0.802              1.830              2.070
 Vibration    45          0.809              1.812              1.967
 Vibration    46          0.823              1.779              1.803
 Vibration    47          0.840              1.736              1.625
 Vibration    48          0.860              1.690              1.468
 Vibration    49          0.909              1.578              1.172
 Vibration    50          0.951              1.487              0.992
 Vibration    51          0.963              1.461              0.947
 Vibration    52          0.973              1.440              0.913
 Vibration    53          1.012              1.361              0.796
 Vibration    54          1.035              1.316              0.737
 Vibration    55          1.073              1.245              0.652
 Vibration    56          1.084              1.225              0.630
 Vibration    57          1.109              1.182              0.585
 Vibration    58          1.114              1.173              0.577
 Vibration    59          1.127              1.150              0.554
 Vibration    60          1.136              1.135              0.540
 Vibration    61          1.144              1.121              0.527
 Vibration    62          1.148              1.114              0.520
 Vibration    63          1.149              1.113              0.520
 Vibration    64          1.154              1.105              0.512
 Vibration    65          1.171              1.077              0.487
 Vibration    66          1.175              1.071              0.482
 Vibration    67          1.177              1.067              0.479
 Vibration    68          1.186              1.053              0.467
 Vibration    69          1.208              1.018              0.438

 Normal termination of Gaussian 09 at Tue Jul 18 02:16:02 2017.
