 Gaussian 09, Revision D.01,
 Gaussian 09:  ES64L-G09RevD.01 24-Apr-2013

 -------------------------------------------
 #p freq wb97xd/gen nosymm punch=derivatives
 -------------------------------------------

 ---------------
 TiCl4 on silica
 ---------------
 Symbolic Z-matrix:
 Charge =  0 Multiplicity = 1

                          Input orientation:
 ---------------------------------------------------------------------
 Center     Atomic      Atomic             Coordinates (Angstroms)
 Number     Number       Type             X           Y           Z
 ---------------------------------------------------------------------
      1         22           0        2.439128   -0.842855    0.093009
      2         17           0        4.295925   -0.079490    0.992139
      3         17           0        2.932017   -2.154371   -1.575452
      4         17           0        1.277648   -1.838594    1.647458
      5         22           0       -2.331833   -0.999159   -0.115888
      6         17           0       -0.908787   -1.809810   -1.579915
      7         17           0       -4.258776   -0.704021   -1.088821
      8         17           0       -2.573076   -2.348183    1.585516
      9         14           0       -1.570627    2.203957    0.602383
     10          8           0        0.065854    2.451072    0.673968
     11         14           0        1.248413    2.222921   -0.428690
     12          8           0        1.603485    0.588495   -0.454798
     13          8           0       -1.747920    0.546093    0.437557
     14          8           0        0.578194    2.720405   -1.843307
     15          1           0        1.121545    2.651206   -2.626643
     16          8           0        2.667272    3.003925   -0.191489
     17          8           0       -2.265191    2.963191   -0.658934
     18          8           0       -2.342562    2.698658    1.946338
     19          1           0        3.302969    2.575579    0.381072
     20          1           0       -1.684793    3.117403   -1.410487
     21          1           0       -2.066469    2.315089    2.777277
 ---------------------------------------------------------------------

 SCF Done:  E(RwB97XD) =  -5569.11588241     A.U. after   16 cycles

 Alpha  occ. eigenvalues -- -179.20962-179.19859-101.74654-101.74213-101.74097
 Alpha  occ. eigenvalues -- -101.73293-101.73241-101.73126 -66.42036 -66.40822
 Alpha  occ. eigenvalues --  -20.18494 -20.17398 -19.31351 -19.30229 -19.30068
 Alpha  occ. eigenvalues --  -19.29442 -19.29359 -19.28244 -19.27486 -16.87835
 Alpha  occ. eigenvalues --  -16.87771 -16.87762 -16.86703 -16.86696 -16.86679
 Alpha  occ. eigenvalues --   -9.61194  -9.60759  -9.60642  -9.59841  -9.59783
 Alpha  occ. eigenvalues --   -9.59678  -7.35586  -7.35289  -7.35282  -7.35147
 Alpha  occ. eigenvalues --   -7.35033  -7.34864  -7.34838  -7.34748  -7.34717
 Alpha  occ. eigenvalues --   -7.34233  -7.34176  -7.34070  -7.33947  -7.33917
 Alpha  occ. eigenvalues --   -7.33887  -7.33857  -7.33784  -7.33751  -5.51536
 Alpha  occ. eigenvalues --   -5.50323  -3.86168  -3.86099  -3.86023  -3.84926
 Alpha  occ. eigenvalues --   -3.84912  -3.84808  -2.60461  -2.59356  -1.71248
 Alpha  occ. eigenvalues --   -1.70501  -1.70451  -1.70152  -1.69380  -1.69359
 Alpha  occ. eigenvalues --   -1.18130  -1.15983  -1.14576  -1.13069  -1.12555
 Alpha  occ. eigenvalues --   -1.10955  -1.09861  -0.93639  -0.92810  -0.92474
 Alpha  occ. eigenvalues --   -0.92415  -0.91615  -0.91496  -0.73019  -0.69761
 Alpha  occ. eigenvalues --   -0.65795  -0.64400  -0.62599  -0.61440  -0.59983
 Alpha  occ. eigenvalues --   -0.54759  -0.53816  -0.53162  -0.51659  -0.50626
 Alpha  occ. eigenvalues --   -0.50157  -0.49478  -0.49313  -0.48790  -0.48595
 Alpha  occ. eigenvalues --   -0.48470  -0.48221  -0.47931  -0.47535  -0.47286
 Alpha  occ. eigenvalues --   -0.46921  -0.46714  -0.46535  -0.45975  -0.45596
 Alpha  occ. eigenvalues --   -0.45543  -0.45465  -0.45074  -0.44538  -0.44340
 Alpha  occ. eigenvalues --   -0.43583  -0.42895  -0.42533  -0.41920  -0.41576
 Alpha  occ. eigenvalues --   -0.41441  -0.40820
 Alpha virt. eigenvalues --   -0.07193  -0.06825  -0.05987  -0.05807  -0.04561
 Alpha virt. eigenvalues --   -0.04071  -0.03193  -0.03146  -0.02862  -0.01862
 Alpha virt. eigenvalues --    0.03858   0.07070   0.08611   0.09789   0.11237

 Mulliken charges:
               1
     1  Ti   0.719894
     2  Cl  -0.181506
     3  Cl  -0.157884
     4  Cl  -0.163581
     5  Ti   0.764204
     6  Cl  -0.192452
     7  Cl  -0.148555
     8  Cl  -0.177014
     9  Si   0.754119
    10  O   -0.400062
    11  Si   0.769357
    12  O   -0.494980
    13  O   -0.522104
    14  O   -0.512268
    15  H    0.325396
    16  O   -0.446795
    17  O   -0.448150
    18  O   -0.439610
    19  H    0.312417
    20  H    0.326240
    21  H    0.313334
 Sum of Mulliken charges =   0.00000

 Dipole moment (field-independent basis, Debye):
    X=              2.8450    Y=              1.7013    Z=             -0.1993  Tot=              3.3208
 Quadrupole moment (field-independent basis, Debye-Ang):
   XX=           -185.1197   YY=           -184.3187   ZZ=           -163.8344
   XY=              6.9595   XZ=             -3.1683   YZ=             -3.0601

  Exact polarizability: 214.278   0.726 192.588  -2.911  -1.112 181.296
 Approx polarizability: 223.267  -0.180 212.258  -5.386  -1.864 224.629

 ******    1 imaginary frequencies (negative Signs) ******

                      1                      2                      3
                      A                      A                      A
 Frequencies --     -0.0051                 0.0172                 0.0289
 Red. masses --************           ************           ************
 Frc consts  --      0.0003                 0.0050                 0.0122
 IR Inten    --      0.0000                 0.0000                 0.0000

                      4                      5                      6
                      A                      A                      A
 Frequencies --      0.0309                 0.0386                 0.0506
 Red. masses --************           ************           ************
 Frc consts  --      0.0115                 0.0164                 0.0556
 IR Inten    --      0.0000                 0.0000                 0.0000

                      7                      8                      9
                      A                      A                      A
 Frequencies --      0.0698                 0.0738                 0.0904
 Red. masses --************           ************           ************
 Frc consts  --      0.1041                 0.1457                 0.1323
 IR Inten    --      0.0000                 0.0000                 0.0000

                     10                     11                     12
                      A                      A                      A
 Frequencies --      0.1165                 0.1269                 0.1494
 Red. masses --************           4105596.8693           7052531.0200
 Frc consts  --      0.1132                 0.0390                 0.0927
 IR Inten    --      0.0000                 0.0000                 0.0000

                     13                     14                     15
                      A                      A                      A
 Frequencies --      0.1694                 0.1940                 0.5359
 Red. masses --9414948.0422           ************           ************
 Frc consts  --      0.1592                 0.3118                 6.9734
 IR Inten    --      0.0000                 0.0000                 0.0000

                     16                     17                     18
                      A                      A                      A
 Frequencies --      0.5466                 0.5488                 0.5526
 Red. masses --************           ************           ************
 Frc consts  --      2.9929                 3.0450                 5.6775
 IR Inten    --      0.0000                 0.0000                 0.0000

                     19                     20                     21
                      A                      A                      A
 Frequencies --     10.4693                11.7900                21.1149
 Red. masses --     36.2921                36.3524                36.3877
 Frc consts  --      0.0023                 0.0030                 0.0096
 IR Inten    --      0.0383                 0.1431                 0.1560

                     22                     23                     24
                      A                      A                      A
 Frequencies --     32.8956                35.8411                48.6527
 Red. masses --     34.8480                35.2056                35.4947
 Frc consts  --      0.0222                 0.0266                 0.0495
 IR Inten    --      0.0215                 0.0768                 0.0641

                     25                     26                     27
                      A                      A                      A
 Frequencies --     53.0802                72.8847                80.0860
 Red. masses --     30.2417                34.1348                33.0299
 Frc consts  --      0.0502                 0.1068                 0.1248
 IR Inten    --      0.0733                 0.1508                 0.0570

                     28                     29                     30
                      A                      A                      A
 Frequencies --     84.7728                89.6965                92.8576
 Red. masses --     34.4374                34.6574                34.2315
 Frc consts  --      0.1458                 0.1643                 0.1739
 IR Inten    --      0.0254                 0.0576                 0.0701

                     31                     32                     33
                      A                      A                      A
 Frequencies --    124.4429               125.2476               132.7289
 Red. masses --     35.0446                34.6510                35.1166
 Frc consts  --      0.3198                 0.3203                 0.3645
 IR Inten    --      0.9342                 1.3857                 0.4000

                     34                     35                     36
                      A                      A                      A
 Frequencies --    138.9787               164.0257               202.4962
 Red. masses --     35.3135                26.5496                31.3228
 Frc consts  --      0.4019                 0.4209                 0.7567
 IR Inten    --      0.0790                 2.2002                 4.2484

                     37                     38                     39
                      A                      A                      A
 Frequencies --    231.3837               269.5136               305.5711
 Red. masses --     21.0151                18.0144                17.9581
 Frc consts  --      0.6629                 0.7710                 0.9880
 IR Inten    --      3.4542                 1.9216                29.6685

                     40                     41                     42
                      A                      A                      A
 Frequencies --    317.2277               341.9621               373.4433
 Red. masses --     17.7507                17.6925                24.3783
 Frc consts  --      1.0525                 1.2190                 2.0031
 IR Inten    --     24.8775                25.8284                28.9407

                     43                     44                     45
                      A                      A                      A
 Frequencies --    390.3656               428.8437               451.0785
 Red. masses --     27.0667                24.5201                26.4040
 Frc consts  --      2.4301                 2.6569                 3.1654
 IR Inten    --     29.8985               127.0202                14.1809

                     46                     47                     48
                      A                      A                      A
 Frequencies --    476.5201               488.5663               492.1704
 Red. masses --     38.3546                39.9928                40.1668
 Frc consts  --      5.1313                 5.6244                 5.7326
 IR Inten    --    304.1351                52.6072                72.5610

                     49                     50                     51
                      A                      A                      A
 Frequencies --    507.7223               639.3926               666.9855
 Red. masses --     39.3060                28.5300                27.1169
 Frc consts  --      5.9698                 6.8721                 7.1076
 IR Inten    --    269.0397                45.2334               131.6228

                     52                     53                     54
                      A                      A                      A
 Frequencies --    699.7881               755.3024               790.2538
 Red. masses --     27.3122                27.1564                24.3356
 Frc consts  --      7.8802                 9.1278                 8.9542
 IR Inten    --     81.1423               247.8997                99.5168

                     55                     56                     57
                      A                      A                      A
 Frequencies --    957.4968              1025.5369              1081.9546
 Red. masses --     17.6690                17.5901                17.8254
 Frc consts  --      9.5441                10.8999                12.2944
 IR Inten    --    623.8696              1504.4848               420.7245

 - Thermochemistry -
 -------------------
 Temperature   298.150 Kelvin.  Pressure   1.00000 Atm.
 Atom     1 has atomic number 22 and mass  47.94795

 Molecular mass: *********** amu.
 Principal axes and moments of inertia in atomic units:
                           1         2         3
     Eigenvalues --  ******************************
           X            0.88181   0.47093   0.02526
           Y            0.01749  -0.08616   0.99613
           Z           -0.47129   0.87795   0.08421
 This molecule is an asymmetric top.
 Rotational symmetry number  1.
 Warning -- assumption of classical behavior for rotation
           may cause significant error
 Rotational temperatures (Kelvin)      0.00000     0.00000     0.00000
 Rotational constants (GHZ):           0.00000     0.00000     0.00000
    1 imaginary frequencies ignored.
 Zero-point vibrational energy      79052.1 (Joules/Mol)
                                   18.89391 (Kcal/Mol)
 Warning -- explicit consideration of  48 degrees of freedom as
           vibrations may cause significant error
 Vibrational temperatures:      0.02     0.04     0.04     0.06     0.07
          (Kelvin)              0.10     0.11     0.13     0.17     0.18
                                0.21     0.24     0.28     0.77     0.79
                                0.79     0.80    15.06    16.96    30.38
                               47.33    51.57    70.00    76.37   104.86
                              115.23   121.97   129.05   133.60   179.05
                              180.20   190.97   199.96   236.00   291.35
                              332.91   387.77   439.65   456.42   492.01
                              537.30   561.65   617.01   649.00   685.61
                              702.94   708.12   730.50   919.94   959.64
                             1006.84  1086.71  1137.00  1377.62  1475.52
                             1556.69

 Zero-point correction=                           0.030109 (Hartree/Particle)
 Thermal correction to Energy=                    0.067775
 Thermal correction to Enthalpy=                  0.068719
 Thermal correction to Gibbs Free Energy=        -0.190492
 Sum of electronic and zero-point Energies=          -5569.085773
 Sum of electronic and thermal Energies=             -5569.048107
 Sum of electronic and thermal Enthalpies=           -5569.047163
 Sum of electronic and thermal Free Energies=        -5569.306374

                     E (Thermal)             CV                S
                      KCal/Mol        Cal/Mol-Kelvin    Cal/Mol-Kelvin
 Total                   42.529             99.255            545.556
 Electronic               0.000              0.000              0.000
 Translational            0.889              2.981             87.098
 Rotational               0.889              2.981             77.274
 Vibrational             40.752             93.293            381.184
 Vibration     1          0.592              1.987             20.655
 Vibration     2          0.592              1.987             19.627
 Vibration     3          0.592              1.987             19.496
 Vibration     4          0.592              1.987             19.054
 Vibration     5          0.592              1.987             18.515
 Vibration     6          0.592              1.987             17.876
 Vibration     7          0.592              1.987             17.765
 Vibration     8          0.592              1.987             17.362
 Vibration     9          0.592              1.987             16.860
 Vibration    10          0.592              1.987             16.689
 Vibration    11          0.592              1.987             16.365
 Vibration    12          0.592              1.987             16.115
 Vibration    13          0.592              1.987             15.845
 Vibration    14          0.592              1.987             13.826
 Vibration    15          0.592              1.987             13.787
 Vibration    16          0.592              1.987             13.779
 Vibration    17          0.592              1.987             13.765
 Vibration    18          0.593              1.987              7.920
 Vibration    19          0.593              1.987              7.684
 Vibration    20          0.593              1.985              6.526
 Vibration    21          0.594              1.983              5.647
 Vibration    22          0.594              1.982              5.477
 Vibration    23          0.595              1.978              4.871
 Vibration    24          0.596              1.976              4.699
 Vibration    25          0.599              1.967              4.074
 Vibration    26          0.600              1.963              3.889
 Vibration    27          0.601              1.960              3.777
 Vibration    28          0.602              1.956              3.667
 Vibration    29          0.602              1.954              3.599
 Vibration    30          0.610              1.929              3.030
 Vibration    31          0.610              1.928              3.018
 Vibration    32          0.613              1.921              2.906
 Vibration    33          0.615              1.914              2.818
 Vibration    34          0.623              1.887              2.503
 Vibration    35          0.639              1.836              2.110
 Vibration    36          0.653              1.793              1.868
 Vibration    37          0.674              1.729              1.599
 Vibration    38          0.696              1.663              1.386
 Vibration    39          0.704              1.641              1.324
 Vibration    40          0.721              1.592              1.203
 Vibration    41          0.745              1.527              1.066
 Vibration    42          0.758              1.491              0.999
 Vibration    43          0.790              1.407              0.862
 Vibration    44          0.810              1.359              0.793
 Vibration    45          0.833              1.302              0.720
 Vibration    46          0.844              1.275              0.687
 Vibration    47          0.848              1.267              0.678
 Vibration    48          0.863              1.233              0.639

 1\1\GINC-NODE125\Freq\RwB97XD\Gen\Cl6H4O7Si2Ti2\SALMAN\20-Jul-2017\0\\
 #p freq wb97xd/gen nosymm punch=derivatives\\TiCl4 on silica\\0,1\Ti,2
 .439128,-0.842855,0.093009\Cl,4.295925,-0.07949,0.992139\Cl,2.932017,-
 2.154371,-1.575452\Cl,1.277648,-1.838594,1.647458\Ti,-2.331833,-0.9991
 59,-0.115888\Cl,-0.908787,-1.80981,-1.579915\Cl,-4.258776,-0.704021,-1
 .088821\Cl,-2.573076,-2.348183,1.585516\Si,-1.570627,2.203957,0.602383
 \O,0.065854,2.451072,0.673968\Si,1.248413,2.222921,-0.42869\O,1.603485
 ,0.588495,-0.454798\O,-1.74792,0.546093,0.437557\O,0.578194,2.720405,-

 Normal termination of Gaussian 09 at Thu Jul 20 15:47:46 2017.
