 Gaussian 09, Revision D.01,
 Gaussian 09:  ES64L-G09RevD.01 24-Apr-2013

 ----------------------------------------------------------------------
 #p wb97xd/gen nosymm punch(derivatives) freq temp=373.15 int=grid=ultr
 afine
 ----------------------------------------------------------------------

 ---------------
 TiCl4 on silica
 ---------------
 Symbolic Z-matrix:
 Charge =  0 Multiplicity = 1

                          Input orientation:
 ---------------------------------------------------------------------
 Center     Atomic      Atomic             Coordinates (Angstroms)
 Number     Number       Type             X           Y           Z
 ---------------------------------------------------------------------
      1         22           0        2.461118   -0.852939    0.206155
      2         17           0        4.303896   -0.075130    1.121202
      3         17           0        2.978039   -2.191951   -1.432767
      4         17           0        1.270682   -1.823881    1.754128
      5         22           0       -2.312491   -1.010489   -0.101147
      6         17           0       -0.860574   -1.835022   -1.528142
      7         17           0       -4.225219   -0.739403   -1.108739
      8         17           0       -2.574640   -2.335482    1.616039
      9         14           0       -1.569630    2.203606    0.602386
     10          8           0        0.067104    2.448676    0.674399
     11         14           0        1.257138    2.196647   -0.415983
     12          8           0        1.634798    0.568472   -0.377767
     13          8           0       -1.746067    0.545468    0.439655
     14          8           0        0.571746    2.623215   -1.846287
     15          1           0        1.121545    2.651206   -2.626643
     16          8           0        2.667272    3.003925   -0.191489
     17          8           0       -2.265191    2.963191   -0.658934
     18          8           0       -2.342562    2.698658    1.946338
     19          1           0        3.302969    2.575579    0.381072
     20          1           0       -1.684793    3.117403   -1.410487
     21          1           0       -2.066469    2.315089    2.777277
 ---------------------------------------------------------------------

 SCF Done:  E(RwB97XD) =  -5569.11610083     A.U. after   16 cycles

 Alpha  occ. eigenvalues -- -179.20832-179.19735-101.74578-101.74152-101.74024
 Alpha  occ. eigenvalues -- -101.73216-101.73175-101.73062 -66.42083 -66.40782
 Alpha  occ. eigenvalues --  -20.18354 -20.17262 -19.31315 -19.30188 -19.30107
 Alpha  occ. eigenvalues --  -19.29526 -19.29296 -19.28208 -19.27479 -16.87706
 Alpha  occ. eigenvalues --  -16.87644 -16.87634 -16.86579 -16.86571 -16.86555
 Alpha  occ. eigenvalues --   -9.61118  -9.60699  -9.60569  -9.59765  -9.59717
 Alpha  occ. eigenvalues --   -9.59614  -7.35512  -7.35214  -7.35209  -7.35087
 Alpha  occ. eigenvalues --   -7.34960  -7.34805  -7.34778  -7.34677  -7.34646
 Alpha  occ. eigenvalues --   -7.34157  -7.34110  -7.34006  -7.33873  -7.33842
 Alpha  occ. eigenvalues --   -7.33823  -7.33793  -7.33721  -7.33689  -5.51573
 Alpha  occ. eigenvalues --   -5.50283  -3.86201  -3.86139  -3.86058  -3.84890
 Alpha  occ. eigenvalues --   -3.84872  -3.84761  -2.60451  -2.59350  -1.71234
 Alpha  occ. eigenvalues --   -1.70475  -1.70424  -1.70136  -1.69357  -1.69339
 Alpha  occ. eigenvalues --   -1.18111  -1.15950  -1.14632  -1.13022  -1.12526
 Alpha  occ. eigenvalues --   -1.10927  -1.09815  -0.93592  -0.92765  -0.92431
 Alpha  occ. eigenvalues --   -0.92375  -0.91569  -0.91459  -0.73047  -0.69768
 Alpha  occ. eigenvalues --   -0.65978  -0.64336  -0.62521  -0.61412  -0.59973
 Alpha  occ. eigenvalues --   -0.54720  -0.53788  -0.53084  -0.51644  -0.50585
 Alpha  occ. eigenvalues --   -0.50158  -0.49444  -0.49295  -0.48748  -0.48551
 Alpha  occ. eigenvalues --   -0.48428  -0.48217  -0.47914  -0.47493  -0.47259
 Alpha  occ. eigenvalues --   -0.46894  -0.46713  -0.46491  -0.45941  -0.45602
 Alpha  occ. eigenvalues --   -0.45500  -0.45410  -0.45031  -0.44499  -0.44296
 Alpha  occ. eigenvalues --   -0.43559  -0.42835  -0.42489  -0.41874  -0.41529
 Alpha  occ. eigenvalues --   -0.41400  -0.40773
 Alpha virt. eigenvalues --   -0.07142  -0.06781  -0.05946  -0.05772  -0.04502
 Alpha virt. eigenvalues --   -0.04017  -0.03141  -0.03094  -0.02823  -0.01824
 Alpha virt. eigenvalues --    0.03884   0.07094   0.08546   0.09839   0.11248

 Mulliken charges:
               1
     1  Ti   0.724704
     2  Cl  -0.181582
     3  Cl  -0.158520
     4  Cl  -0.164327
     5  Ti   0.766845
     6  Cl  -0.192054
     7  Cl  -0.149538
     8  Cl  -0.177736
     9  Si   0.757293
    10  O   -0.400371
    11  Si   0.772288
    12  O   -0.496057
    13  O   -0.523777
    14  O   -0.518461
    15  H    0.327899
    16  O   -0.448143
    17  O   -0.449302
    18  O   -0.439740
    19  H    0.312242
    20  H    0.325117
    21  H    0.313219
 Sum of Mulliken charges =   0.00000

 Dipole moment (field-independent basis, Debye):
    X=              2.8815    Y=              1.8995    Z=             -0.3221  Tot=              3.4663
 Quadrupole moment (field-independent basis, Debye-Ang):
   XX=           -185.2200   YY=           -183.3980   ZZ=           -163.8669
   XY=              7.1858   XZ=             -3.4239   YZ=             -3.5746

  Exact polarizability: 214.583   0.559 192.545  -2.131  -1.407 181.502
 Approx polarizability: 223.510  -0.102 212.013  -5.298  -1.795 224.388

 ******    1 imaginary frequencies (negative Signs) ******

                      1                      2                      3
                      A                      A                      A
 Frequencies --     -0.0354                 0.0509                 0.0590
 Red. masses -- 131649.6842           4374876.9163             71931.7496
 Frc consts  --      0.0001                 0.0067                 0.0001
 IR Inten    --      0.0000                 0.0000                 0.0000

                      4                      5                      6
                      A                      A                      A
 Frequencies --      0.0878                 0.1067                 0.1596
 Red. masses --1052453.0806            417436.2154           3151732.3565
 Frc consts  --      0.0048                 0.0028                 0.0473
 IR Inten    --      0.0000                 0.0000                 0.0000

                      7                      8                      9
                      A                      A                      A
 Frequencies --      0.2197                 0.2321                 0.2779
 Red. masses -- 612397.5904           4125311.5442           1381720.1160
 Frc consts  --      0.0174                 0.1309                 0.0629
 IR Inten    --      0.0001                 0.0000                 0.0000

                     10                     11                     12
                      A                      A                      A
 Frequencies --      0.3711                 0.3953                 0.4705
 Red. masses --1347320.4795             60513.6631            110091.3299
 Frc consts  --      0.1093                 0.0056                 0.0144
 IR Inten    --      0.0000                 0.0001                 0.0000

                     13                     14                     15
                      A                      A                      A
 Frequencies --      0.5344                 0.6188                 1.6952
 Red. masses -- 367546.5314            649575.3617            235477.9146
 Frc consts  --      0.0618                 0.1466                 0.3987
 IR Inten    --      0.0001                 0.0000                 0.0000

                     16                     17                     18
                      A                      A                      A
 Frequencies --      1.7205                 1.7390                 1.7479
 Red. masses --   9192.2333            446638.8243           2881232.7090
 Frc consts  --      0.0160                 0.7958                 5.1862
 IR Inten    --      0.0005                 0.0001                 0.0000

                     19                     20                     21
                      A                      A                      A
 Frequencies --      3.1468                 8.4769                16.1822
 Red. masses --     36.3872                36.3084                36.4052
 Frc consts  --      0.0002                 0.0015                 0.0056
 IR Inten    --      0.1204                 0.0615                 0.1505

                     22                     23                     24
                      A                      A                      A
 Frequencies --     24.6509                27.8463                37.9105
 Red. masses --     35.1241                35.1117                36.1702
 Frc consts  --      0.0126                 0.0160                 0.0306
 IR Inten    --      0.0035                 0.0752                 0.0714

                     25                     26                     27
                      A                      A                      A
 Frequencies --     53.3312                70.5527                74.6151
 Red. masses --     30.0241                34.0937                32.9648
 Frc consts  --      0.0503                 0.1000                 0.1081
 IR Inten    --      0.0780                 0.1828                 0.0108

                     28                     29                     30
                      A                      A                      A
 Frequencies --     82.4147                87.9008                88.5289
 Red. masses --     33.8641                34.7203                34.6013
 Frc consts  --      0.1355                 0.1581                 0.1598
 IR Inten    --      0.0692                 0.0741                 0.0156

                     31                     32                     33
                      A                      A                      A
 Frequencies --    122.2254               125.4264               129.9646
 Red. masses --     34.9767                34.7239                35.0434
 Frc consts  --      0.3079                 0.3219                 0.3487
 IR Inten    --      1.6589                 0.5451                 0.4718

                     34                     35                     36
                      A                      A                      A
 Frequencies --    132.0502               164.1100               201.7436
 Red. masses --     35.4785                26.4333                30.9924
 Frc consts  --      0.3645                 0.4194                 0.7432
 IR Inten    --      0.0932                 2.3753                 4.3388

                     37                     38                     39
                      A                      A                      A
 Frequencies --    231.7079               268.4340               301.3470
 Red. masses --     21.0306                17.9778                17.9409
 Frc consts  --      0.6652                 0.7632                 0.9599
 IR Inten    --      3.6927                 2.1939                32.8101

                     40                     41                     42
                      A                      A                      A
 Frequencies --    314.9777               343.2153               375.9404
 Red. masses --     17.7512                17.5576                23.7414
 Frc consts  --      1.0376                 1.2186                 1.9769
 IR Inten    --     24.5268                22.7460                27.7537

                     43                     44                     45
                      A                      A                      A
 Frequencies --    394.0552               433.0370               452.4823
 Red. masses --     26.2127                25.4869                26.5190
 Frc consts  --      2.3981                 2.8159                 3.1990
 IR Inten    --     33.0597               128.5971                18.0278

                     46                     47                     48
                      A                      A                      A
 Frequencies --    486.0568               498.8301               504.4903
 Red. masses --     39.0646                40.2209                40.3611
 Frc consts  --      5.4376                 5.8967                 6.0523
 IR Inten    --    277.4168                52.4670               118.4137

                     49                     50                     51
                      A                      A                      A
 Frequencies --    520.6166               633.8059               662.7020
 Red. masses --     39.8279                28.7481                27.1321
 Frc consts  --      6.3602                 6.8041                 7.0205
 IR Inten    --    241.4532                41.8515               157.3711

                     52                     53                     54
                      A                      A                      A
 Frequencies --    704.3209               752.7587               789.2521
 Red. masses --     27.5161                27.1686                24.3303
 Frc consts  --      8.0423                 9.0704                 8.9296
 IR Inten    --     64.8104               252.4182                97.5492

                     55                     56                     57
                      A                      A                      A
 Frequencies --    949.1154              1018.1496              1076.6959
 Red. masses --     17.6391                17.5945                17.8065
 Frc consts  --      9.3619                10.7461                12.1623
 IR Inten    --    639.6783              1505.2788               403.2161

 - Thermochemistry -
 -------------------
 Temperature   373.150 Kelvin.  Pressure   1.00000 Atm.
 Atom     1 has atomic number 22 and mass  47.94795

 Molecular mass: *********** amu.
 Principal axes and moments of inertia in atomic units:
                           1         2         3
     Eigenvalues --  ******************************
           X            0.88193   0.47071   0.02524
           Y            0.01436  -0.08035   0.99666
           Z           -0.47117   0.87862   0.07763
 This molecule is an asymmetric top.
 Rotational symmetry number  1.
 Warning -- assumption of classical behavior for rotation
           may cause significant error
 Rotational temperatures (Kelvin)      0.00000     0.00000     0.00000
 Rotational constants (GHZ):           0.00000     0.00000     0.00000
    1 imaginary frequencies ignored.
 Zero-point vibrational energy      78795.4 (Joules/Mol)
                                   18.83254 (Kcal/Mol)
 Warning -- explicit consideration of  52 degrees of freedom as
           vibrations may cause significant error
 Vibrational temperatures:      0.07     0.08     0.13     0.15     0.23
          (Kelvin)              0.32     0.33     0.40     0.53     0.57
                                0.68     0.77     0.89     2.44     2.48
                                2.50     2.51     4.53    12.20    23.28
                               35.47    40.06    54.54    76.73   101.51
                              107.35   118.58   126.47   127.37   175.85
                              180.46   186.99   189.99   236.12   290.26
                              333.38   386.22   433.57   453.18   493.81
                              540.89   566.96   623.04   651.02   699.33
                              717.70   725.85   749.05   911.90   953.48
                             1013.36  1083.05  1135.56  1365.56  1464.89
                             1549.12

 Zero-point correction=                           0.030012 (Hartree/Particle)
 Thermal correction to Energy=                    0.079926
 Thermal correction to Enthalpy=                  0.081108
 Thermal correction to Gibbs Free Energy=        -0.230107
 Sum of electronic and zero-point Energies=          -5569.086089
 Sum of electronic and thermal Energies=             -5569.036175
 Sum of electronic and thermal Enthalpies=           -5569.034993
 Sum of electronic and thermal Free Energies=        -5569.346208

                     E (Thermal)             CV                S
                      KCal/Mol        Cal/Mol-Kelvin    Cal/Mol-Kelvin
 Total                   50.154            103.792            523.356
 Electronic               0.000              0.000              0.000
 Translational            1.112              2.981             81.349
 Rotational               1.112              2.981             71.081
 Vibrational             47.930             97.831            370.927
 Vibration     1          0.742              1.987             18.951
 Vibration     2          0.742              1.987             18.655
 Vibration     3          0.742              1.987             17.868
 Vibration     4          0.742              1.987             17.479
 Vibration     5          0.742              1.987             16.679
 Vibration     6          0.742              1.987             16.044
 Vibration     7          0.742              1.987             15.935
 Vibration     8          0.742              1.987             15.577
 Vibration     9          0.742              1.987             15.003
 Vibration    10          0.742              1.987             14.877
 Vibration    11          0.742              1.987             14.531
 Vibration    12          0.742              1.987             14.278
 Vibration    13          0.742              1.987             13.986
 Vibration    14          0.742              1.987             11.984
 Vibration    15          0.742              1.987             11.954
 Vibration    16          0.742              1.987             11.933
 Vibration    17          0.742              1.987             11.923
 Vibration    18          0.742              1.987             10.754
 Vibration    19          0.742              1.987              8.785
 Vibration    20          0.742              1.987              7.501
 Vibration    21          0.742              1.986              6.665
 Vibration    22          0.742              1.985              6.423
 Vibration    23          0.743              1.984              5.810
 Vibration    24          0.744              1.980              5.134
 Vibration    25          0.746              1.975              4.580
 Vibration    26          0.747              1.974              4.470
 Vibration    27          0.748              1.971              4.274
 Vibration    28          0.749              1.968              4.147
 Vibration    29          0.749              1.968              4.133
 Vibration    30          0.755              1.951              3.501
 Vibration    31          0.756              1.949              3.450
 Vibration    32          0.757              1.946              3.381
 Vibration    33          0.757              1.945              3.350
 Vibration    34          0.766              1.922              2.929
 Vibration    35          0.779              1.890              2.536
 Vibration    36          0.790              1.860              2.276
 Vibration    37          0.807              1.819              2.005
 Vibration    38          0.823              1.778              1.797
 Vibration    39          0.831              1.760              1.719
 Vibration    40          0.847              1.721              1.569
 Vibration    41          0.867              1.673              1.415
 Vibration    42          0.879              1.645              1.337
 Vibration    43          0.906              1.583              1.184
 Vibration    44          0.921              1.551              1.115
 Vibration    45          0.947              1.495              1.006
 Vibration    46          0.957              1.473              0.968
 Vibration    47          0.962              1.463              0.951
 Vibration    48          0.975              1.436              0.906
 Vibration    49          1.078              1.236              0.642
 Vibration    50          1.107              1.185              0.588
 Vibration    51          1.150              1.112              0.518
 Vibration    52          1.201              1.029              0.447

 Normal termination of Gaussian 09 at Wed Aug 23 13:08:43 2017.
