 Gaussian 09, Revision D.01,
 Gaussian 09:  ES64L-G09RevD.01 24-Apr-2013

 ----------------------------------------------------------------------
 #p wb97xd/gen nosymm punch(derivatives) freq temp=373.15 int=grid=1999
 74
 ----------------------------------------------------------------------

 ---------------
 TiCl4 on silica
 ---------------
 Symbolic Z-matrix:
 Charge =  0 Multiplicity = 1

                          Input orientation:
 ---------------------------------------------------------------------
 Center     Atomic      Atomic             Coordinates (Angstroms)
 Number     Number       Type             X           Y           Z
 ---------------------------------------------------------------------
      1         22           0        2.461118   -0.852939    0.206155
      2         17           0        4.303896   -0.075130    1.121202
      3         17           0        2.978039   -2.191951   -1.432767
      4         17           0        1.270682   -1.823881    1.754128
      5         22           0       -2.312491   -1.010489   -0.101147
      6         17           0       -0.860574   -1.835022   -1.528142
      7         17           0       -4.225219   -0.739403   -1.108739
      8         17           0       -2.574640   -2.335482    1.616039
      9         14           0       -1.569630    2.203606    0.602386
     10          8           0        0.067104    2.448676    0.674399
     11         14           0        1.257138    2.196647   -0.415983
     12          8           0        1.634798    0.568472   -0.377767
     13          8           0       -1.746067    0.545468    0.439655
     14          8           0        0.571746    2.623215   -1.846287
     15          1           0        1.121545    2.651206   -2.626643
     16          8           0        2.667272    3.003925   -0.191489
     17          8           0       -2.265191    2.963191   -0.658934
     18          8           0       -2.342562    2.698658    1.946338
     19          1           0        3.302969    2.575579    0.381072
     20          1           0       -1.684793    3.117403   -1.410487
     21          1           0       -2.066469    2.315089    2.777277
 ---------------------------------------------------------------------

 SCF Done:  E(RwB97XD) =  -5569.11606768     A.U. after   16 cycles

 Alpha  occ. eigenvalues -- -179.20827-179.19731-101.74578-101.74150-101.74023
 Alpha  occ. eigenvalues -- -101.73217-101.73175-101.73062 -66.42086 -66.40785
 Alpha  occ. eigenvalues --  -20.18347 -20.17256 -19.31314 -19.30188 -19.30107
 Alpha  occ. eigenvalues --  -19.29527 -19.29297 -19.28210 -19.27480 -16.87699
 Alpha  occ. eigenvalues --  -16.87638 -16.87627 -16.86573 -16.86566 -16.86550
 Alpha  occ. eigenvalues --   -9.61118  -9.60697  -9.60569  -9.59766  -9.59717
 Alpha  occ. eigenvalues --   -9.59615  -7.35511  -7.35214  -7.35208  -7.35086
 Alpha  occ. eigenvalues --   -7.34960  -7.34803  -7.34777  -7.34677  -7.34645
 Alpha  occ. eigenvalues --   -7.34158  -7.34111  -7.34007  -7.33874  -7.33843
 Alpha  occ. eigenvalues --   -7.33824  -7.33793  -7.33722  -7.33689  -5.51574
 Alpha  occ. eigenvalues --   -5.50285  -3.86203  -3.86141  -3.86059  -3.84893
 Alpha  occ. eigenvalues --   -3.84874  -3.84762  -2.60446  -2.59346  -1.71228
 Alpha  occ. eigenvalues --   -1.70473  -1.70424  -1.70130  -1.69357  -1.69338
 Alpha  occ. eigenvalues --   -1.18111  -1.15950  -1.14631  -1.13023  -1.12527
 Alpha  occ. eigenvalues --   -1.10927  -1.09816  -0.93591  -0.92764  -0.92429
 Alpha  occ. eigenvalues --   -0.92374  -0.91569  -0.91458  -0.73048  -0.69770
 Alpha  occ. eigenvalues --   -0.65978  -0.64336  -0.62522  -0.61413  -0.59974
 Alpha  occ. eigenvalues --   -0.54720  -0.53788  -0.53084  -0.51644  -0.50585
 Alpha  occ. eigenvalues --   -0.50158  -0.49440  -0.49295  -0.48747  -0.48550
 Alpha  occ. eigenvalues --   -0.48425  -0.48216  -0.47913  -0.47492  -0.47258
 Alpha  occ. eigenvalues --   -0.46893  -0.46713  -0.46490  -0.45942  -0.45602
 Alpha  occ. eigenvalues --   -0.45501  -0.45410  -0.45031  -0.44499  -0.44297
 Alpha  occ. eigenvalues --   -0.43560  -0.42835  -0.42489  -0.41874  -0.41529
 Alpha  occ. eigenvalues --   -0.41401  -0.40773
 Alpha virt. eigenvalues --   -0.07139  -0.06778  -0.05944  -0.05770  -0.04505
 Alpha virt. eigenvalues --   -0.04021  -0.03145  -0.03098  -0.02817  -0.01819
 Alpha virt. eigenvalues --    0.03884   0.07094   0.08547   0.09838   0.11249

 Mulliken charges:
               1
     1  Ti   0.724658
     2  Cl  -0.181577
     3  Cl  -0.158499
     4  Cl  -0.164342
     5  Ti   0.766614
     6  Cl  -0.192066
     7  Cl  -0.149499
     8  Cl  -0.177660
     9  Si   0.757354
    10  O   -0.400388
    11  Si   0.772275
    12  O   -0.496136
    13  O   -0.523826
    14  O   -0.518394
    15  H    0.327891
    16  O   -0.448134
    17  O   -0.449218
    18  O   -0.439653
    19  H    0.312272
    20  H    0.325102
    21  H    0.313226
 Sum of Mulliken charges =   0.00000

 Dipole moment (field-independent basis, Debye):
    X=              2.8805    Y=              1.9006    Z=             -0.3220  Tot=              3.4660
 Quadrupole moment (field-independent basis, Debye-Ang):
   XX=           -185.2201   YY=           -183.3964   ZZ=           -163.8668
   XY=              7.1854   XZ=             -3.4244   YZ=             -3.5740

  Exact polarizability: 214.647   0.599 192.536  -2.185  -1.397 181.446
 Approx polarizability: 223.514  -0.100 212.012  -5.301  -1.796 224.398

 ******    1 imaginary frequencies (negative Signs) ******

                      1                      2                      3
                      A                      A                      A
 Frequencies --     -0.0302                 0.0524                 0.0869
 Red. masses -- 729693.7746           2847240.6427           1018447.1935
 Frc consts  --      0.0004                 0.0046                 0.0045
 IR Inten    --      0.0000                 0.0000                 0.0000

                      4                      5                      6
                      A                      A                      A
 Frequencies --      0.0939                 0.1112                 0.1585
 Red. masses --1638226.9249            942224.4334           2442883.7423
 Frc consts  --      0.0085                 0.0069                 0.0362
 IR Inten    --      0.0000                 0.0000                 0.0000

                      7                      8                      9
                      A                      A                      A
 Frequencies --      0.2172                 0.2320                 0.2781
 Red. masses --2126594.8842           4069957.3957           2586350.3661
 Frc consts  --      0.0591                 0.1291                 0.1178
 IR Inten    --      0.0000                 0.0000                 0.0000

                     10                     11                     12
                      A                      A                      A
 Frequencies --      0.3706                 0.3983                 0.4709
 Red. masses --1251105.5444            251561.9191            472504.9268
 Frc consts  --      0.1012                 0.0235                 0.0617
 IR Inten    --      0.0000                 0.0000                 0.0000

                     13                     14                     15
                      A                      A                      A
 Frequencies --      0.5348                 0.6196                 1.6951
 Red. masses -- 767615.6153           1151771.2929           2186142.2696
 Frc consts  --      0.1293                 0.2605                 3.7009
 IR Inten    --      0.0000                 0.0000                 0.0000

                     16                     17                     18
                      A                      A                      A
 Frequencies --      1.7287                 1.7389                 1.7480
 Red. masses -- 289676.5247           1160670.5993           2348964.2604
 Frc consts  --      0.5100                 2.0679                 4.2285
 IR Inten    --      0.0000                 0.0000                 0.0000

                     19                     20                     21
                      A                      A                      A
 Frequencies --      6.3519                 8.1170                16.3622
 Red. masses --     36.2548                36.2797                36.3809
 Frc consts  --      0.0009                 0.0014                 0.0057
 IR Inten    --      0.0672                 0.0988                 0.1948

                     22                     23                     24
                      A                      A                      A
 Frequencies --     27.7737                29.5592                38.7903
 Red. masses --     34.8554                35.1515                36.3216
 Frc consts  --      0.0158                 0.0181                 0.0322
 IR Inten    --      0.0086                 0.0824                 0.0894

                     25                     26                     27
                      A                      A                      A
 Frequencies --     51.1490                71.7105                75.6776
 Red. masses --     29.8551                34.1429                32.8661
 Frc consts  --      0.0460                 0.1034                 0.1109
 IR Inten    --      0.0850                 0.1796                 0.0090

                     28                     29                     30
                      A                      A                      A
 Frequencies --     82.4357                87.2632                88.3430
 Red. masses --     33.6836                34.8189                34.6906
 Frc consts  --      0.1349                 0.1562                 0.1595
 IR Inten    --      0.1062                 0.0893                 0.0268

                     31                     32                     33
                      A                      A                      A
 Frequencies --    120.8979               123.7509               131.0116
 Red. masses --     35.6409                33.9125                35.1175
 Frc consts  --      0.3069                 0.3060                 0.3551
 IR Inten    --      2.2634                 0.1174                 0.5549

                     34                     35                     36
                      A                      A                      A
 Frequencies --    133.0471               163.4004               201.9443
 Red. masses --     35.4507                26.5481                30.9783
 Frc consts  --      0.3697                 0.4176                 0.7443
 IR Inten    --      0.0690                 2.2238                 4.3813

                     37                     38                     39
                      A                      A                      A
 Frequencies --    231.9350               267.7230               302.0817
 Red. masses --     21.0943                18.0067                17.9503
 Frc consts  --      0.6686                 0.7604                 0.9651
 IR Inten    --      3.6822                 2.1425                31.7806

                     40                     41                     42
                      A                      A                      A
 Frequencies --    313.4148               342.9836               375.3187
 Red. masses --     17.7172                17.6035                23.9052
 Frc consts  --      1.0254                 1.2201                 1.9840
 IR Inten    --     23.4553                23.4431                28.5340

                     43                     44                     45
                      A                      A                      A
 Frequencies --    393.2472               432.2737               452.4720
 Red. masses --     26.4894                25.1374                26.5137
 Frc consts  --      2.4135                 2.7675                 3.1982
 IR Inten    --     34.1855               125.7003                16.9962

                     46                     47                     48
                      A                      A                      A
 Frequencies --    483.8333               496.4105               501.7169
 Red. masses --     38.8325                40.2205                40.3417
 Frc consts  --      5.3560                 5.8396                 5.9830
 IR Inten    --    281.8338                50.6668               116.7420

                     49                     50                     51
                      A                      A                      A
 Frequencies --    518.2713               636.1094               664.6368
 Red. masses --     39.7208                28.7302                27.1905
 Frc consts  --      6.2861                 6.8494                 7.0768
 IR Inten    --    243.8166                40.2033               162.7821

                     52                     53                     54
                      A                      A                      A
 Frequencies --    704.7924               753.8385               792.3695
 Red. masses --     27.4962                27.1648                24.3442
 Frc consts  --      8.0472                 9.0952                 9.0054
 IR Inten    --     66.8956               253.2792                92.9458

                     55                     56                     57
                      A                      A                      A
 Frequencies --    956.3580              1025.1207              1081.9025
 Red. masses --     17.6419                17.6013                17.8012
 Frc consts  --      9.5068                10.8979                12.2765
 IR Inten    --    648.7292              1505.6202               397.8957

 - Thermochemistry -
 -------------------
 Temperature   373.150 Kelvin.  Pressure   1.00000 Atm.
 Atom     1 has atomic number 22 and mass  47.94795

 Molecular mass: *********** amu.
 Principal axes and moments of inertia in atomic units:
                           1         2         3
     Eigenvalues --  ******************************
           X            0.88193   0.47071   0.02524
           Y            0.01436  -0.08035   0.99666
           Z           -0.47117   0.87862   0.07763
 This molecule is an asymmetric top.
 Rotational symmetry number  1.
 Warning -- assumption of classical behavior for rotation
           may cause significant error
 Rotational temperatures (Kelvin)      0.00000     0.00000     0.00000
 Rotational constants (GHZ):           0.00000     0.00000     0.00000
    1 imaginary frequencies ignored.
 Zero-point vibrational energy      78923.2 (Joules/Mol)
                                   18.86310 (Kcal/Mol)
 Warning -- explicit consideration of  52 degrees of freedom as
           vibrations may cause significant error
 Vibrational temperatures:      0.08     0.13     0.14     0.16     0.23
          (Kelvin)              0.31     0.33     0.40     0.53     0.57
                                0.68     0.77     0.89     2.44     2.49
                                2.50     2.51     9.14    11.68    23.54
                               39.96    42.53    55.81    73.59   103.18
                              108.88   118.61   125.55   127.11   173.94
                              178.05   188.50   191.42   235.10   290.55
                              333.70   385.19   434.63   450.93   493.48
                              540.00   565.79   621.94   651.01   696.13
                              714.22   721.86   745.68   915.22   956.26
                             1014.04  1084.60  1140.04  1375.98  1474.92
                             1556.61

 Zero-point correction=                           0.030060 (Hartree/Particle)
 Thermal correction to Energy=                    0.079963
 Thermal correction to Enthalpy=                  0.081145
 Thermal correction to Gibbs Free Energy=        -0.228476
 Sum of electronic and zero-point Energies=          -5569.086007
 Sum of electronic and thermal Energies=             -5569.036105
 Sum of electronic and thermal Enthalpies=           -5569.034923
 Sum of electronic and thermal Free Energies=        -5569.344544

                     E (Thermal)             CV                S
                      KCal/Mol        Cal/Mol-Kelvin    Cal/Mol-Kelvin
 Total                   50.178            103.774            520.675
 Electronic               0.000              0.000              0.000
 Translational            1.112              2.981             81.349
 Rotational               1.112              2.981             71.081
 Vibrational             47.953             97.812            368.245
 Vibration     1          0.742              1.987             18.894
 Vibration     2          0.742              1.987             17.888
 Vibration     3          0.742              1.987             17.733
 Vibration     4          0.742              1.987             17.397
 Vibration     5          0.742              1.987             16.693
 Vibration     6          0.742              1.987             16.066
 Vibration     7          0.742              1.987             15.936
 Vibration     8          0.742              1.987             15.576
 Vibration     9          0.742              1.987             15.005
 Vibration    10          0.742              1.987             14.862
 Vibration    11          0.742              1.987             14.529
 Vibration    12          0.742              1.987             14.276
 Vibration    13          0.742              1.987             13.984
 Vibration    14          0.742              1.987             11.984
 Vibration    15          0.742              1.987             11.945
 Vibration    16          0.742              1.987             11.933
 Vibration    17          0.742              1.987             11.923
 Vibration    18          0.742              1.987              9.359
 Vibration    19          0.742              1.987              8.871
 Vibration    20          0.742              1.987              7.479
 Vibration    21          0.742              1.985              6.428
 Vibration    22          0.742              1.985              6.304
 Vibration    23          0.743              1.984              5.765
 Vibration    24          0.744              1.981              5.217
 Vibration    25          0.746              1.975              4.548
 Vibration    26          0.747              1.973              4.442
 Vibration    27          0.748              1.971              4.273
 Vibration    28          0.749              1.969              4.161
 Vibration    29          0.749              1.968              4.137
 Vibration    30          0.755              1.952              3.522
 Vibration    31          0.756              1.950              3.476
 Vibration    32          0.757              1.945              3.365
 Vibration    33          0.758              1.944              3.335
 Vibration    34          0.766              1.923              2.938
 Vibration    35          0.779              1.890              2.534
 Vibration    36          0.790              1.860              2.274
 Vibration    37          0.806              1.820              2.010
 Vibration    38          0.824              1.777              1.793
 Vibration    39          0.830              1.762              1.728
 Vibration    40          0.847              1.721              1.571
 Vibration    41          0.867              1.674              1.418
 Vibration    42          0.878              1.647              1.340
 Vibration    43          0.906              1.585              1.187
 Vibration    44          0.921              1.552              1.116
 Vibration    45          0.945              1.499              1.013
 Vibration    46          0.955              1.477              0.975
 Vibration    47          0.960              1.468              0.959
 Vibration    48          0.973              1.440              0.912
 Vibration    49          1.081              1.232              0.638
 Vibration    50          1.109              1.181              0.585
 Vibration    51          1.150              1.111              0.518
 Vibration    52          1.202              1.027              0.446

 Normal termination of Gaussian 09 at Wed Aug 23 14:16:22 2017.
