 Gaussian 09, Revision C.01,
 Gaussian 09:  EM64L-G09RevC.01 23-Sep-2011

 -------------------------------------------------------------
 #p freq temp=373.15 uwb97xd/gen nosymm scf(qc,maxcycles=1000)
 -------------------------------------------------------------

 (Enter /share/apps/gaussian09/g09/l101.exe)
 -------------------
 Title Card Required
 -------------------
 Charge =  0 Multiplicity = 2

                          Input orientation:
 ---------------------------------------------------------------------
 Center     Atomic      Atomic             Coordinates (Angstroms)
 Number     Number       Type             X           Y           Z
 ---------------------------------------------------------------------
      1          1           0       -2.421926    3.419013    3.291994
      2          1           0        2.917046    1.638354    6.345407
      3          1           0        1.330572    2.108494    6.969150
      4          1           0        2.607322    3.317216    6.799071
      5          1           0        3.849964    2.644399    3.580563
      6          1           0        3.480692    4.327789    3.944126
      7          1           0        2.774204    3.560447    2.517881
      8          1           0        1.735068    0.436098    3.773743
      9          1           0        0.609015    1.379613    2.784247
     10          1           0        0.102416    0.788364    4.356216
     11          1           0       -0.953957    7.501874    6.347886
     12          1           0       -1.079923    5.896717    7.080796
     13          1           0       -1.978101    6.270665    5.605261
     14          1           0        1.375815    6.892534    2.997231
     15          1           0       -0.352316    7.362839    3.145869
     16          1           0        2.139099    7.288173    6.155406
     17          1           0        2.909570    5.889229    5.405499
     18          1           0        2.074724    5.709139    6.953285
     19          6           0        0.181067    4.046921    4.561200
     20          1           0       -0.709038    3.585665    5.007908
     21         14           0        1.584154    2.805586    4.580903
     22         14           0        0.426468    5.850937    5.089078
     23          6           0        2.164195    2.430593    6.340678
     24          6           0        3.057959    3.397492    3.560041
     25          6           0        0.952085    1.197793    3.805960
     26          6           0       -1.034330    6.434472    6.131168
     27          6           0        0.386202    6.582921    3.340517
     28          6           0        2.044611    6.213456    5.985167
     29         24           0       -0.128750    4.760990    2.722213
     30          8           0        0.545402    4.119763    1.151050
     31          8           0       -2.012491    3.543595    2.431464
     32          8           0       -1.117931    2.241665    0.301322
     33         14           0       -2.332641    2.267357    1.369592
     34         14           0        0.358780    2.995599    0.016298
     35          8           0        1.528661    1.824193   -0.017492
     36          8           0        0.329600    3.677299   -1.481629
     37          8           0       -3.798190    2.422088    0.623798
     38          8           0       -2.438175    0.962776    2.368284
     39          1           0        1.472018    1.113006    0.626407
     40          1           0        0.721006    3.163209   -2.193283
     41          1           0       -3.813801    2.949512   -0.179499
     42          1           0       -3.058420    0.287818    2.079215
 ---------------------------------------------------------------------

 SCF Done:  E(UwB97XD) =  -3010.14962037     a.u. after   54 cycles

 Alpha  occ. eigenvalues -- -215.95558 -66.39720 -66.36387 -66.27137 -66.26418
 Alpha  occ. eigenvalues --  -24.87370 -21.15300 -21.14627 -21.13161 -19.30376
 Alpha  occ. eigenvalues --  -19.27825 -19.27762 -19.26384 -19.25081 -19.24657
 Alpha  occ. eigenvalues --  -19.22046 -10.25935 -10.25841 -10.25379 -10.24955
 Alpha  occ. eigenvalues --  -10.24578 -10.24188 -10.24011  -5.49245  -5.45881
 Alpha  occ. eigenvalues --   -5.37624  -5.36901  -3.83859  -3.83776  -3.83773
 Alpha  occ. eigenvalues --   -3.80522  -3.80442  -3.80357  -3.72128  -3.72071
 Alpha  occ. eigenvalues --   -3.72062  -3.71382  -3.71362  -3.71340  -3.01548
 Alpha  occ. eigenvalues --   -1.97460  -1.95515  -1.93272  -1.17011  -1.13695
 Alpha  occ. eigenvalues --   -1.12730  -1.12260  -1.09579  -1.09324  -1.03889
 Alpha  occ. eigenvalues --   -0.81674  -0.80277  -0.77585  -0.76839  -0.76478
 Alpha  occ. eigenvalues --   -0.75050  -0.72638  -0.71066  -0.66321  -0.65006
 Alpha  occ. eigenvalues --   -0.63767  -0.61311  -0.60321  -0.55919  -0.54649
 Alpha  occ. eigenvalues --   -0.53543  -0.53339  -0.50743  -0.50572  -0.49808
 Alpha  occ. eigenvalues --   -0.49632  -0.49452  -0.49376  -0.48783  -0.48417
 Alpha  occ. eigenvalues --   -0.48176  -0.47723  -0.47200  -0.47050  -0.46699
 Alpha  occ. eigenvalues --   -0.46523  -0.46270  -0.45771  -0.45267  -0.44908
 Alpha  occ. eigenvalues --   -0.44753  -0.44196  -0.43256  -0.42741  -0.42160
 Alpha  occ. eigenvalues --   -0.41212  -0.39983  -0.39919  -0.38152  -0.37846
 Alpha  occ. eigenvalues --   -0.36612  -0.35226  -0.33277  -0.31968  -0.31192
 Alpha  occ. eigenvalues --   -0.30047
 Alpha virt. eigenvalues --    0.00822   0.01964   0.04207   0.05763   0.08889
 Alpha virt. eigenvalues --    0.09534   0.10379   0.11526   0.12077   0.12903
 Alpha virt. eigenvalues --    0.13117   0.14256   0.14679   0.15008   0.15674

  Beta  occ. eigenvalues -- -215.95538 -66.39721 -66.36383 -66.27131 -66.26416
  Beta  occ. eigenvalues --  -24.85674 -21.13551 -21.13120 -21.12092 -19.30410
  Beta  occ. eigenvalues --  -19.27823 -19.27765 -19.26383 -19.25081 -19.24657
  Beta  occ. eigenvalues --  -19.21964 -10.25928 -10.25841 -10.25380 -10.24960
  Beta  occ. eigenvalues --  -10.24582 -10.24241 -10.24068  -5.49246  -5.45876
  Beta  occ. eigenvalues --   -5.37616  -5.36898  -3.83861  -3.83777  -3.83773
  Beta  occ. eigenvalues --   -3.80521  -3.80437  -3.80348  -3.72117  -3.72062
  Beta  occ. eigenvalues --   -3.72056  -3.71377  -3.71360  -3.71338  -2.96771
  Beta  occ. eigenvalues --   -1.91302  -1.90397  -1.89170  -1.17037  -1.13715
  Beta  occ. eigenvalues --   -1.12719  -1.12262  -1.09578  -1.09324  -1.03637
  Beta  occ. eigenvalues --   -0.81681  -0.80276  -0.77578  -0.76845  -0.76489
  Beta  occ. eigenvalues --   -0.75072  -0.72684  -0.71070  -0.66299  -0.64988
  Beta  occ. eigenvalues --   -0.63777  -0.61304  -0.60310  -0.55791  -0.54587
  Beta  occ. eigenvalues --   -0.53361  -0.53277  -0.50752  -0.50548  -0.49810
  Beta  occ. eigenvalues --   -0.49610  -0.49444  -0.49287  -0.48696  -0.48445
  Beta  occ. eigenvalues --   -0.48163  -0.47727  -0.47157  -0.47033  -0.46621
  Beta  occ. eigenvalues --   -0.46394  -0.46264  -0.45693  -0.45246  -0.44786
  Beta  occ. eigenvalues --   -0.44250  -0.44008  -0.43198  -0.42594  -0.41687
  Beta  occ. eigenvalues --   -0.41105  -0.39511  -0.39454  -0.38077  -0.37800
  Beta  occ. eigenvalues --   -0.36563  -0.34815  -0.33200  -0.32171  -0.27169
  Beta virt. eigenvalues --    0.02555   0.03914   0.05062   0.05389   0.05908
  Beta virt. eigenvalues --    0.08898   0.09574   0.10602   0.11539   0.12245
  Beta virt. eigenvalues --    0.13000   0.13201   0.14332   0.14730   0.15223

 Mulliken atomic charges:
              1
     1  H    0.330393
     2  H    0.130815
     3  H    0.128711
     4  H    0.133751
     5  H    0.135146
     6  H    0.131268
     7  H    0.161066
     8  H    0.138001
     9  H    0.025475
    10  H    0.145149
    11  H    0.141418
    12  H    0.139617
    13  H    0.124239
    14  H    0.167231
    15  H    0.162995
    16  H    0.149856
    17  H    0.133160
    18  H    0.139303
    19  C   -0.448948
    20  H    0.147955
    21  Si   0.594352
    22  Si   0.497879
    23  C   -0.525798
    24  C   -0.573431
    25  C   -0.496368
    26  C   -0.533657
    27  C   -0.548505
    28  C   -0.512988
    29  Cr   0.444257
    30  O   -0.572394
    31  O   -0.518401
    32  O   -0.426902
    33  Si   0.776136
    34  Si   0.786616
    35  O   -0.505884
    36  O   -0.490189
    37  O   -0.482329
    38  O   -0.487789
    39  H    0.313232
    40  H    0.310705
    41  H    0.317346
    42  H    0.317510
 Sum of Mulliken atomic charges =   0.00000

 Dipole moment (field-independent basis, Debye):
    X=             -3.4177    Y=             -2.0616    Z=              0.4081  Tot=              4.0121
 Quadrupole moment (field-independent basis, Debye-Ang):
   XX=           -148.2610   YY=           -163.7196   ZZ=           -148.4077
   XY=            -10.8356   XZ=             -5.1872   YZ=              1.9119

  Exact polarizability: 201.784  -0.921 222.712  14.941  16.821 238.274
 Approx polarizability: 213.977   0.719 231.008   4.934   2.862 242.044

 ******    1 imaginary frequencies (negative Signs) ******

                     1                      2                      3
                     A                      A                      A
 Frequencies --   -10.2012                 0.0328                 0.0665
 Red. masses --     4.5501             98841.4397            ***********
 Frc consts  --     0.0003                 0.0001                 0.0047
 IR Inten    --     0.0155                 0.0000                 0.0000

                     4                      5                      6
                     A                      A                      A
 Frequencies --     0.1141                 0.1307                 0.1475
 Red. masses --***********            181585.4187            578765.6815
 Frc consts  --     0.0143                 0.0018                 0.0074
 IR Inten    --     0.0000                 0.0000                 0.0000

                     7                      8                      9
                     A                      A                      A
 Frequencies --     0.1604                 0.1999                 0.2481
 Red. masses --294533.8352            ***********            296041.2844
 Frc consts  --     0.0045                 0.0269                 0.0107
 IR Inten    --     0.0000                 0.0000                 0.0001

                    10                     11                     12
                     A                      A                      A
 Frequencies --     0.2722                 0.3025                 0.4042
 Red. masses --***********            527262.9819            799082.6630
 Frc consts  --     0.0714                 0.0284                 0.0769
 IR Inten    --     0.0001                 0.0000                 0.0000

                    13                     14                     15
                     A                      A                      A
 Frequencies --     0.5411                 0.6396                 0.7181
 Red. masses -- 76192.5235            289286.9080            586217.3210
 Frc consts  --     0.0131                 0.0697                 0.1781
 IR Inten    --     0.0000                 0.0000                 0.0000

                    16                     17                     18
                     A                      A                      A
 Frequencies --     1.6902                 1.6965                 1.7082
 Red. masses --668413.7318             90463.9672            ***********
 Frc consts  --     1.1250                 0.1534                 2.4938
 IR Inten    --     0.0000                 0.0000                 0.0000

                    19                     20                     21
                     A                      A                      A
 Frequencies --     1.7124                14.6847                24.9692
 Red. masses --457493.7279                 4.0259                 3.9136
 Frc consts  --     0.7904                 0.0005                 0.0014
 IR Inten    --     0.0000                 0.0331                 0.0083

                    22                     23                     24
                     A                      A                      A
 Frequencies --    29.7200                49.5740                69.5873
 Red. masses --     3.6141                 5.3871                 2.9878
 Frc consts  --     0.0019                 0.0078                 0.0085
 IR Inten    --     0.0261                 0.2576                 0.2611

                    25                     26                     27
                     A                      A                      A
 Frequencies --    92.4210                99.9299               113.1167
 Red. masses --     5.1060                 6.5208                 4.0269
 Frc consts  --     0.0257                 0.0384                 0.0304
 IR Inten    --     0.0376                 4.7462                 1.7011

                    28                     29                     30
                     A                      A                      A
 Frequencies --   142.8248               147.4468               148.8473
 Red. masses --     2.2447                 7.5987                 1.9972
 Frc consts  --     0.0270                 0.0973                 0.0261
 IR Inten    --     1.2181                 1.6343                 9.9887

                    31                     32                     33
                     A                      A                      A
 Frequencies --   157.8428               164.1017               174.4037
 Red. masses --     1.9075                 2.3408                 1.8495
 Frc consts  --     0.0280                 0.0371                 0.0331
 IR Inten    --     2.6040                 0.0856                 1.0487

                    34                     35                     36
                     A                      A                      A
 Frequencies --   180.8337               185.8378               190.7033
 Red. masses --     1.8154                 1.0432                 1.9738
 Frc consts  --     0.0350                 0.0212                 0.0423
 IR Inten    --     1.0960                 0.0379                12.8703

                    37                     38                     39
                     A                      A                      A
 Frequencies --   191.1771               203.5475               209.6884
 Red. masses --     1.3833                 1.8655                 2.3675
 Frc consts  --     0.0298                 0.0455                 0.0613
 IR Inten    --     1.5792                 6.1308                 0.7063

                    40                     41                     42
                     A                      A                      A
 Frequencies --   216.6622               220.7694               227.2106
 Red. masses --     4.2361                 2.2917                 3.4291
 Frc consts  --     0.1172                 0.0658                 0.1043
 IR Inten    --     6.6182                 0.5293                 2.0608

                    43                     44                     45
                     A                      A                      A
 Frequencies --   233.3721               246.4704               261.1752
 Red. masses --     3.4982                 1.4248                 3.2702
 Frc consts  --     0.1123                 0.0510                 0.1314
 IR Inten    --     7.4559                 0.3357                 3.5568

                    46                     47                     48
                     A                      A                      A
 Frequencies --   277.4466               293.5716               329.5361
 Red. masses --     9.4950                 4.9342                 3.6572
 Frc consts  --     0.4306                 0.2506                 0.2340
 IR Inten    --     5.6746                14.4318                22.7107

                    49                     50                     51
                     A                      A                      A
 Frequencies --   346.4608               382.2571               474.1127
 Red. masses --     5.5035                 1.8336                12.5984
 Frc consts  --     0.3892                 0.1579                 1.6685
 IR Inten    --    44.1631                56.2574               112.9386

                    52                     53                     54
                     A                      A                      A
 Frequencies --   496.5560               511.6618               523.6697
 Red. masses --     1.4675                 9.3086                 4.2939
 Frc consts  --     0.2132                 1.4358                 0.6938
 IR Inten    --    24.8596                76.6396                29.0355

                    55                     56                     57
                     A                      A                      A
 Frequencies --   565.8642               577.5581               631.3410
 Red. masses --     3.3995                 3.2762                 4.5523
 Frc consts  --     0.6413                 0.6439                 1.0691
 IR Inten    --    36.1808                66.8095                16.5830

                    58                     59                     60
                     A                      A                      A
 Frequencies --   649.5672               666.2503               667.7816
 Red. masses --     6.0772                 9.1450                 3.9021
 Frc consts  --     1.5108                 2.3917                 1.0252
 IR Inten    --     6.5564                28.3199                18.8752

                    61                     62                     63
                     A                      A                      A
 Frequencies --   687.6855               690.7272               691.3900
 Red. masses --     1.3011                 4.3992                 1.3142
 Frc consts  --     0.3625                 1.2366                 0.3701
 IR Inten    --    22.9868               251.8645                25.1421

                    64                     65                     66
                     A                      A                      A
 Frequencies --   702.1474               705.1400               707.6390
 Red. masses --     2.2807                 1.9679                 2.0144
 Frc consts  --     0.6625                 0.5765                 0.5943
 IR Inten    --    30.4601                 6.2204                10.5800

                    67                     68                     69
                     A                      A                      A
 Frequencies --   725.0240               738.1389               754.7021
 Red. masses --     2.9161                14.1919                 1.4970
 Frc consts  --     0.9031                 4.5558                 0.5024
 IR Inten    --    41.7319                22.1815                 6.9646

                    70                     71                     72
                     A                      A                      A
 Frequencies --   764.6125               792.7614               798.4981
 Red. masses --     1.4301                 1.3903                 1.4730
 Frc consts  --     0.4926                 0.5148                 0.5533
 IR Inten    --    13.7768                37.3468                56.1636

                    73                     74                     75
                     A                      A                      A
 Frequencies --   822.1697               825.8458               837.0625
 Red. masses --     4.1928                 1.7931                 1.5983
 Frc consts  --     1.6699                 0.7205                 0.6598
 IR Inten    --   239.8201               126.9767                 2.4020

                    76                     77                     78
                     A                      A                      A
 Frequencies --   850.3746               860.7054               868.8759
 Red. masses --     1.5116                 1.7820                 1.7717
 Frc consts  --     0.6440                 0.7778                 0.7881
 IR Inten    --    46.0345                13.6032               100.4405

                    79                     80                     81
                     A                      A                      A
 Frequencies --   876.4918               884.4309               893.0535
 Red. masses --     1.6624                 1.7319                 1.7725
 Frc consts  --     0.7524                 0.7982                 0.8329
 IR Inten    --   121.6721               169.2868               257.6247

                    82                     83                     84
                     A                      A                      A
 Frequencies --  1017.1108              1038.4160              1060.3878
 Red. masses --     1.8043                 2.2030                 2.1674
 Frc consts  --     1.0997                 1.3996                 1.4359
 IR Inten    --    80.5703               201.4045               837.1673

                    85                     86                     87
                     A                      A                      A
 Frequencies --  1114.6117              1292.3189              1295.2605
 Red. masses --     7.4804                 1.2717                 1.2665
 Frc consts  --     5.4755                 1.2513                 1.2519
 IR Inten    --   644.0899                28.1888                36.6643

                    88                     89                     90
                     A                      A                      A
 Frequencies --  1299.1234              1300.4905              1313.8912
 Red. masses --     1.2583                 1.2493                 1.2397
 Frc consts  --     1.2512                 1.2449                 1.2609
 IR Inten    --    31.0279                37.8106                36.4669

                    91                     92                     93
                     A                      A                      A
 Frequencies --  1369.7896              1460.8678              1463.4253
 Red. masses --     1.1151                 1.0527                 1.0523
 Frc consts  --     1.2328                 1.3237                 1.3278
 IR Inten    --     9.4009                 0.7483                 0.9218

                    94                     95                     96
                     A                      A                      A
 Frequencies --  1464.8668              1470.4328              1473.0853
 Red. masses --     1.0535                 1.0521                 1.0515
 Frc consts  --     1.3320                 1.3403                 1.3444
 IR Inten    --     0.9542                 0.4167                 4.0668

                    97                     98                     99
                     A                      A                      A
 Frequencies --  1475.3932              1477.0870              1481.7018
 Red. masses --     1.0494                 1.0500                 1.0481
 Frc consts  --     1.3459                 1.3497                 1.3557
 IR Inten    --    10.2616                 6.3751                 6.8725

                   100                    101                    102
                     A                      A                      A
 Frequencies --  1486.3611              1489.8812              3049.6314
 Red. masses --     1.0508                 1.0494                 1.0822
 Frc consts  --     1.3678                 1.3725                 5.9302
 IR Inten    --     6.4127                 5.1741                18.0677

                   103                    104                    105
                     A                      A                      A
 Frequencies --  3053.4120              3053.5051              3054.9933
 Red. masses --     1.0350                 1.0355                 1.0356
 Frc consts  --     5.6855                 5.6883                 5.6946
 IR Inten    --     9.2679                13.0524                10.5552

                   106                    107                    108
                     A                      A                      A
 Frequencies --  3056.8988              3061.8013              3079.9087
 Red. masses --     1.0356                 1.0356                 1.0557
 Frc consts  --     5.7017                 5.7199                 5.9004
 IR Inten    --     4.5636                14.8535                 1.9122

                   109                    110                    111
                     A                      A                      A
 Frequencies --  3132.9563              3134.3379              3135.0962
 Red. masses --     1.1010                 1.0999                 1.1007
 Frc consts  --     6.3670                 6.3665                 6.3741
 IR Inten    --     7.8114                14.7543                17.4465

                   112                    113                    114
                     A                      A                      A
 Frequencies --  3136.0374              3140.2677              3140.5743
 Red. masses --     1.0995                 1.1013                 1.1001
 Frc consts  --     6.3708                 6.3988                 6.3930
 IR Inten    --    31.8886                 2.8318                14.5666

                   115                    116                    117
                     A                      A                      A
 Frequencies --  3141.8693              3144.2158              3146.7186
 Red. masses --     1.1011                 1.0998                 1.1007
 Frc consts  --     6.4042                 6.4063                 6.4217
 IR Inten    --    29.3601                 1.6313                10.7567

                   118                    119                    120
                     A                      A                      A
 Frequencies --  3150.7579              3156.3376              3893.3474
 Red. masses --     1.1056                 1.0990                 1.0655
 Frc consts  --     6.4665                 6.4506                 9.5163
 IR Inten    --     2.0805                 6.0628                63.9130

 - Thermochemistry -
 -------------------
 Temperature   373.150 Kelvin.  Pressure   1.00000 Atm.
 Atom     1 has atomic number  1 and mass   1.00783

 Molecular mass: *********** amu.
 Principal axes and moments of inertia in atomic units:
                           1         2         3
     Eigenvalues --  ******************************
           X            0.86133  -0.48156   0.16191
           Y            0.21187   0.63012   0.74704
           Z           -0.46177  -0.60914   0.64477
 This molecule is an asymmetric top.
 Rotational symmetry number  1.
 Warning -- assumption of classical behavior for rotation
           may cause significant error
 Rotational temperatures (Kelvin)      0.00000     0.00000     0.00000
 Rotational constants (GHZ):           0.00000     0.00000     0.00000
    1 imaginary frequencies ignored.
 Zero-point vibrational energy     685376.4 (Joules/Mol)
                                  163.80889 (Kcal/Mol)
 Warning -- explicit consideration of  69 degrees of freedom as
           vibrations may cause significant error
 Vibrational temperatures:      0.05     0.10     0.16     0.19     0.21
          (Kelvin)              0.23     0.29     0.36     0.39     0.44
                                0.58     0.78     0.92     1.03     2.43
                                2.44     2.46     2.46    21.13    35.93
                               42.76    71.33   100.12   132.97   143.78
                              162.75   205.49   212.14   214.16   227.10
                              236.11   250.93   260.18   267.38   274.38
                              275.06   292.86   301.69   311.73   317.64
                              326.90   335.77   354.62   375.77   399.18
                              422.38   474.13   498.48   549.98   682.14
                              714.43   736.17   753.44   814.15   830.98
                              908.36   934.58   958.58   960.79   989.42
                              993.80   994.75  1010.23  1014.54  1018.13
                             1043.15  1062.02  1085.85  1100.11  1140.61
                             1148.86  1182.92  1188.21  1204.34  1223.50
                             1238.36  1250.12  1261.07  1272.50  1284.90
                             1463.39  1494.05  1525.66  1603.68  1859.36
                             1863.59  1869.15  1871.11  1890.39  1970.82
                             2101.86  2105.54  2107.61  2115.62  2119.44
                             2122.76  2125.20  2131.84  2138.54  2143.60
                             4387.73  4393.17  4393.31  4395.45  4398.19
                             4405.24  4431.30  4507.62  4509.61  4510.70
                             4512.05  4518.14  4518.58  4520.44  4523.82
                             4527.42  4533.23  4541.26  5601.65

 Zero-point correction=                           0.261046 (Hartree/Particle)
 Thermal correction to Energy=                    0.319423
 Thermal correction to Enthalpy=                  0.320604
 Thermal correction to Gibbs Free Energy=        -0.002833
 Sum of electronic and zero-point Energies=          -3009.888574
 Sum of electronic and thermal Energies=             -3009.830198
 Sum of electronic and thermal Enthalpies=           -3009.829016
 Sum of electronic and thermal Free Energies=        -3010.152453

                     E (Thermal)             CV                S
                      KCal/Mol        Cal/Mol-Kelvin    Cal/Mol-Kelvin
 Total                  200.441            140.771            543.910
 Electronic               0.000              0.000              1.377
 Translational            1.112              2.981             81.349
 Rotational               1.112              2.981             71.271
 Vibrational            198.216            134.810            389.912
 Vibration     1          0.742              1.987             19.824
 Vibration     2          0.742              1.987             18.418
 Vibration     3          0.742              1.987             17.347
 Vibration     4          0.742              1.987             17.076
 Vibration     5          0.742              1.987             16.835
 Vibration     6          0.742              1.987             16.669
 Vibration     7          0.742              1.987             16.232
 Vibration     8          0.742              1.987             15.802
 Vibration     9          0.742              1.987             15.618
 Vibration    10          0.742              1.987             15.409
 Vibration    11          0.742              1.987             14.833
 Vibration    12          0.742              1.987             14.253
 Vibration    13          0.742              1.987             13.921
 Vibration    14          0.742              1.987             13.691
 Vibration    15          0.742              1.987             11.990
 Vibration    16          0.742              1.987             11.982
 Vibration    17          0.742              1.987             11.968
 Vibration    18          0.742              1.987             11.964
 Vibration    19          0.742              1.987              7.694
 Vibration    20          0.742              1.986              6.639
 Vibration    21          0.742              1.985              6.293
 Vibration    22          0.744              1.981              5.279
 Vibration    23          0.746              1.975              4.608
 Vibration    24          0.749              1.966              4.048
 Vibration    25          0.751              1.963              3.895
 Vibration    26          0.753              1.956              3.652
 Vibration    27          0.760              1.938              3.198
 Vibration    28          0.761              1.935              3.136
 Vibration    29          0.762              1.934              3.118
 Vibration    30          0.764              1.927              3.004
 Vibration    31          0.766              1.922              2.930
 Vibration    32          0.769              1.914              2.813
 Vibration    33          0.771              1.909              2.744
 Vibration    34          0.773              1.904              2.692
 Vibration    35          0.775              1.900              2.642
 Vibration    36          0.775              1.900              2.638
 Vibration    37          0.779              1.888              2.519
 Vibration    38          0.781              1.882              2.463
 Vibration    39          0.784              1.876              2.401
 Vibration    40          0.786              1.871              2.366
 Vibration    41          0.788              1.865              2.312
 Vibration    42          0.791              1.858              2.263
 Vibration    43          0.797              1.844              2.162
 Vibration    44          0.803              1.827              2.055
 Vibration    45          0.811              1.808              1.945
 Vibration    46          0.819              1.788              1.844
 Vibration    47          0.839              1.740              1.640
 Vibration    48          0.849              1.716              1.553
 Vibration    49          0.871              1.663              1.387
 Vibration    50          0.937              1.515              1.044
 Vibration    51          0.955              1.477              0.975
 Vibration    52          0.968              1.451              0.931
 Vibration    53          0.978              1.430              0.897
 Vibration    54          1.015              1.356              0.789
 Vibration    55          1.025              1.336              0.762
 Vibration    56          1.076              1.240              0.647
 Vibration    57          1.094              1.208              0.612
 Vibration    58          1.111              1.178              0.582
 Vibration    59          1.112              1.176              0.579
 Vibration    60          1.132              1.141              0.545
 Vibration    61          1.135              1.136              0.540
 Vibration    62          1.136              1.134              0.539
 Vibration    63          1.147              1.116              0.522
 Vibration    64          1.150              1.110              0.517
 Vibration    65          1.153              1.106              0.513
 Vibration    66          1.171              1.076              0.487
 Vibration    67          1.185              1.054              0.468
 Vibration    68          1.203              1.025              0.445
 Vibration    69          1.214              1.009              0.431

 Normal termination of Gaussian 09 at Wed Jul 12 12:36:59 2017.
