 Gaussian 09, Revision C.01,
 Gaussian 09:  EM64L-G09RevC.01 23-Sep-2011

 --------------------------------------
 #p uwb97xd/gen nosymm freq temp=373.15
 --------------------------------------

 (Enter /share/apps/gaussian09/g09/l101.exe)
 ------
 CrSite
 ------
 Charge =  0 Multiplicity = 5

                          Input orientation:
 ---------------------------------------------------------------------
 Center     Atomic      Atomic             Coordinates (Angstroms)
 Number     Number       Type             X           Y           Z
 ---------------------------------------------------------------------
      1         24           0       -0.095472    2.716987    3.395667
      2          8           0        0.903341    2.771463    1.882251
      3          8           0       -1.832528    2.767467    2.875230
      4          8           0       -1.147483    3.823658    0.502908
      5         14           0       -2.371855    3.509670    1.541693
      6         14           0        0.452501    3.480397    0.499218
      7          9           0       -3.090888    4.914737    1.908546
      8          9           0       -3.494745    2.623997    0.788738
      9          9           0        0.782815    2.538077   -0.771037
     10          9           0        1.267339    4.859529    0.252034
     11          6           0        0.303414    4.345444    4.447414
     12          6           0        0.014688    5.645347    3.707483
     13          1           0        1.367439    4.255264    4.710071
     14          1           0       -0.291067    4.261305    5.368692
     15          6           0        0.389316    6.891094    4.522651
     16          1           0        0.572429    5.667879    2.766446
     17          1           0       -1.045500    5.696520    3.449478
     18          6           0        1.845579    7.007992    4.787856
     19          1           0        0.039020    7.775676    3.968687
     20          1           0       -0.169451    6.896138    5.464254
     21          1           0        2.217084    7.560210    5.640662
     22          1           0        2.561751    6.685877    4.040751
 ---------------------------------------------------------------------

 SCF Done:  E(UwB97XD) =  -2406.04275736     A.U. after   27 cycles

 Alpha  occ. eigenvalues -- -216.01381 -66.42413 -66.42389 -24.94454 -24.83050
 Alpha  occ. eigenvalues --  -24.83026 -24.82910 -24.82833 -21.21376 -21.21336
 Alpha  occ. eigenvalues --  -21.20928 -19.29244 -19.27648 -19.27604 -10.30369
 Alpha  occ. eigenvalues --  -10.30211 -10.29770 -10.29724  -5.51863  -5.51839
 Alpha  occ. eigenvalues --   -3.86524  -3.86500  -3.86429  -3.86406  -3.86326
 Alpha  occ. eigenvalues --   -3.86301  -3.11783  -2.06530  -2.06341  -2.05510
 Alpha  occ. eigenvalues --   -1.31483  -1.31375  -1.29428  -1.29400  -1.14618
 Alpha  occ. eigenvalues --   -1.09256  -1.09198  -0.91890  -0.83236  -0.74470
 Alpha  occ. eigenvalues --   -0.70689  -0.68122  -0.64849  -0.60948  -0.59627
 Alpha  occ. eigenvalues --   -0.59464  -0.58572  -0.57999  -0.57318  -0.54878
 Alpha  occ. eigenvalues --   -0.54263  -0.53982  -0.53611  -0.53138  -0.53045
 Alpha  occ. eigenvalues --   -0.52325  -0.52073  -0.51780  -0.51280  -0.50924
 Alpha  occ. eigenvalues --   -0.50244  -0.48582  -0.48268  -0.47341  -0.46506
 Alpha  occ. eigenvalues --   -0.46115  -0.45708  -0.44573  -0.43631  -0.39901
 Alpha  occ. eigenvalues --   -0.38642  -0.38097  -0.37706  -0.29471
 Alpha virt. eigenvalues --   -0.04266  -0.04238   0.00283   0.07723   0.09753
 Alpha virt. eigenvalues --    0.10393   0.12363   0.13051   0.13708   0.14097
 Alpha virt. eigenvalues --    0.14935   0.15470   0.16573   0.17184   0.17931

  Beta  occ. eigenvalues -- -216.01297 -66.42407 -66.42383 -24.89724 -24.83047
  Beta  occ. eigenvalues --  -24.83023 -24.82912 -24.82834 -21.17711 -21.17687
  Beta  occ. eigenvalues --  -21.16236 -19.29240 -19.27601 -19.27555 -10.30660
  Beta  occ. eigenvalues --  -10.30138 -10.29825 -10.28616  -5.51855  -5.51831
  Beta  occ. eigenvalues --   -3.86517  -3.86493  -3.86422  -3.86399  -3.86315
  Beta  occ. eigenvalues --   -3.86289  -2.98554  -1.93153  -1.92914  -1.89612
  Beta  occ. eigenvalues --   -1.31478  -1.31370  -1.29425  -1.29397  -1.14580
  Beta  occ. eigenvalues --   -1.09008  -1.08971  -0.91430  -0.82145  -0.73210
  Beta  occ. eigenvalues --   -0.70639  -0.66922  -0.64658  -0.60877  -0.59495
  Beta  occ. eigenvalues --   -0.58901  -0.58430  -0.57639  -0.57091  -0.54715
  Beta  occ. eigenvalues --   -0.53572  -0.53380  -0.53119  -0.53078  -0.52887
  Beta  occ. eigenvalues --   -0.52230  -0.51666  -0.51511  -0.51074  -0.50863
  Beta  occ. eigenvalues --   -0.49384  -0.47335  -0.46761  -0.46545  -0.45170
  Beta  occ. eigenvalues --   -0.44663  -0.44553  -0.43920  -0.43307  -0.37542
  Beta virt. eigenvalues --   -0.03080  -0.00618   0.00423   0.00744   0.01786
  Beta virt. eigenvalues --    0.01973   0.04073   0.08309   0.10380   0.11228
  Beta virt. eigenvalues --    0.12902   0.13210   0.13938   0.14375   0.15201

 Mulliken atomic charges:
              1
     1  Cr   0.718400
     2  O   -0.567360
     3  O   -0.566996
     4  O   -0.447509
     5  Si   1.016703
     6  Si   1.018359
     7  F   -0.306776
     8  F   -0.298601
     9  F   -0.299290
    10  F   -0.306502
    11  C   -0.196162
    12  C   -0.307917
    13  H    0.135242
    14  H    0.120518
    15  C   -0.174402
    16  H    0.127061
    17  H    0.137562
    18  C   -0.362037
    19  H    0.150769
    20  H    0.119952
    21  H    0.145051
    22  H    0.143936
 Sum of Mulliken atomic charges =   0.00000

 Dipole moment (field-independent basis, Debye):
    X=              1.9030    Y=             -1.3203    Z=              5.7204  Tot=              6.1715
 Quadrupole moment (field-independent basis, Debye-Ang):
   XX=           -114.9117   YY=           -109.3128   ZZ=            -76.1711
   XY=              5.6495   XZ=              5.0257   YZ=             13.8141

  Exact polarizability: 108.111   8.862 117.865   8.503  16.936 117.631
 Approx polarizability: 112.365   3.296 116.859   2.434   8.986 115.100

                     1                      2                      3
                     A                      A                      A
 Frequencies --     0.0621                 0.1025                 0.3126
 Red. masses --***********            548026.4297            ***********
 Frc consts  --     0.0044                 0.0034                 0.1534
 IR Inten    --     0.0000                 0.0000                 0.0000

                     4                      5                      6
                     A                      A                      A
 Frequencies --     0.3674                 0.5478                 0.6673
 Red. masses --539318.0310            752326.1913            ***********
 Frc consts  --     0.0429                 0.1330                 0.6644
 IR Inten    --     0.0000                 0.0001                 0.0001

                     7                      8                      9
                     A                      A                      A
 Frequencies --    18.0987                28.7952                47.4770
 Red. masses --     4.5321                 4.1382                 3.3107
 Frc consts  --     0.0009                 0.0020                 0.0044
 IR Inten    --     0.3508                 0.0459                 0.9470

                    10                     11                     12
                     A                      A                      A
 Frequencies --    65.7540                91.8128               122.3543
 Red. masses --     3.5499                 3.4777                 1.3967
 Frc consts  --     0.0090                 0.0173                 0.0123
 IR Inten    --     0.9583                 0.3052                 0.4591

                    13                     14                     15
                     A                      A                      A
 Frequencies --   141.5608               153.7891               163.1848
 Red. masses --     2.2717                 6.0779                 3.0691
 Frc consts  --     0.0268                 0.0847                 0.0482
 IR Inten    --     3.0284                 2.6667                 1.4401

                    16                     17                     18
                     A                      A                      A
 Frequencies --   171.6327               215.3765               235.2408
 Red. masses --    10.3082                13.0860                 7.0363
 Frc consts  --     0.1789                 0.3576                 0.2294
 IR Inten    --     0.3372                33.5943                 0.3374

                    19                     20                     21
                     A                      A                      A
 Frequencies --   247.2556               252.3322               273.4192
 Red. masses --     6.2561                14.2903                 3.8616
 Frc consts  --     0.2253                 0.5361                 0.1701
 IR Inten    --     1.1693                 0.3704                 0.6135

                    22                     23                     24
                     A                      A                      A
 Frequencies --   301.6576               420.4207               507.8076
 Red. masses --    10.6708                 2.2174                19.4098
 Frc consts  --     0.5721                 0.2309                 2.9490
 IR Inten    --    36.1088                11.2834               192.0319

                    25                     26                     27
                     A                      A                      A
 Frequencies --   514.8011               550.6995               564.3683
 Red. masses --     1.2959                12.8230                 2.6096
 Frc consts  --     0.2024                 2.2912                 0.4897
 IR Inten    --    46.5880                85.2727                 7.9343

                    28                     29                     30
                     A                      A                      A
 Frequencies --   578.4809               657.4312               676.7101
 Red. masses --     1.4158                18.0372                10.0510
 Frc consts  --     0.2791                 4.5932                 2.7118
 IR Inten    --     0.9575                13.1053                76.9155

                    31                     32                     33
                     A                      A                      A
 Frequencies --   698.9308               720.5660               794.3379
 Red. masses --    26.7275                26.6611                24.2216
 Frc consts  --     7.6927                 8.1560                 9.0046
 IR Inten    --     9.8451               305.3822                15.5575

                    34                     35                     36
                     A                      A                      A
 Frequencies --   819.4387               851.5956               884.5989
 Red. masses --     1.3615                 1.4092                 2.2812
 Frc consts  --     0.5386                 0.6021                 1.0518
 IR Inten    --     0.3552                 3.3797                 1.1282

                    37                     38                     39
                     A                      A                      A
 Frequencies --   955.9446              1013.8726              1026.4953
 Red. masses --    18.8671                 1.2625                 3.1528
 Frc consts  --    10.1583                 0.7646                 1.9573
 IR Inten    --    46.4747                11.1804               144.8722

                    40                     41                     42
                     A                      A                      A
 Frequencies --  1035.1702              1090.2310              1094.3753
 Red. masses --     6.5584                11.3062                 2.3437
 Frc consts  --     4.1407                 7.9178                 1.6538
 IR Inten    --   773.9651               510.7216                57.8185

                    43                     44                     45
                     A                      A                      A
 Frequencies --  1118.9636              1198.4851              1225.6227
 Red. masses --     1.6373                 1.6403                 1.2440
 Frc consts  --     1.2078                 1.3882                 1.1009
 IR Inten    --    11.5013                 0.1463                10.8069

                    46                     47                     48
                     A                      A                      A
 Frequencies --  1320.5843              1374.8048              1386.8406
 Red. masses --     1.2010                 1.2911                 1.3214
 Frc consts  --     1.2341                 1.4378                 1.4974
 IR Inten    --     0.8726                 0.2388                 2.0788

                    49                     50                     51
                     A                      A                      A
 Frequencies --  1428.3093              1471.0493              1478.7615
 Red. masses --     1.1454                 1.0943                 1.1724
 Frc consts  --     1.3767                 1.3952                 1.5105
 IR Inten    --     5.9492                 7.5007                 1.6756

                    52                     53                     54
                     A                      A                      A
 Frequencies --  1509.7595              2979.2713              2996.4128
 Red. masses --     1.0924                 1.0708                 1.0541
 Frc consts  --     1.4670                 5.6000                 5.5762
 IR Inten    --    12.1898                29.1771                12.4893

                    55                     56                     57
                     A                      A                      A
 Frequencies --  3055.0410              3061.0052              3071.0111
 Red. masses --     1.0985                 1.0752                 1.0777
 Frc consts  --     6.0407                 5.9358                 5.9886
 IR Inten    --    14.5494                 1.4620                25.5094

                    58                     59                     60
                     A                      A                      A
 Frequencies --  3115.8150              3162.5393              3271.0660
 Red. masses --     1.1038                 1.0521                 1.1180
 Frc consts  --     6.3135                 6.1998                 7.0479
 IR Inten    --    16.2095                11.4803                12.5028

 - Thermochemistry -
 -------------------
 Temperature   373.150 Kelvin.  Pressure   1.00000 Atm.
 Atom     1 has atomic number 24 and mass  51.94051

 Molecular mass: *********** amu.
 Principal axes and moments of inertia in atomic units:
                           1         2         3
     Eigenvalues --  ******************************
           X            0.93719   0.16838   0.30549
           Y           -0.01416   0.89343  -0.44898
           Z           -0.34854   0.41646   0.83970
 This molecule is an asymmetric top.
 Rotational symmetry number  1.
 Warning -- assumption of classical behavior for rotation
           may cause significant error
 Rotational temperatures (Kelvin)      0.00000     0.00000     0.00000
 Rotational constants (GHZ):           0.00001     0.00000     0.00000
 Zero-point vibrational energy     336230.9 (Joules/Mol)
                                   80.36112 (Kcal/Mol)
 Warning -- explicit consideration of  32 degrees of freedom as
           vibrations may cause significant error
 Vibrational temperatures:      0.09     0.15     0.45     0.53     0.79
          (Kelvin)              0.96    26.04    41.43    68.31    94.61
                              132.10   176.04   203.67   221.27   234.79
                              246.94   309.88   338.46   355.75   363.05
                              393.39   434.02   604.89   730.62   740.68
                              792.33   812.00   832.30   945.90   973.63
                             1005.60  1036.73  1142.87  1178.99  1225.25
                             1272.74  1375.39  1458.73  1476.90  1489.38
                             1568.60  1574.56  1609.94  1724.35  1763.40
                             1900.02  1978.04  1995.35  2055.02  2116.51
                             2127.61  2172.20  4286.50  4311.16  4395.52
                             4404.10  4418.49  4482.96  4550.18  4706.33

 Zero-point correction=                           0.128064 (Hartree/Particle)
 Thermal correction to Energy=                    0.157292
 Thermal correction to Enthalpy=                  0.158473
 Thermal correction to Gibbs Free Energy=        -0.027359
 Sum of electronic and zero-point Energies=          -2405.914694
 Sum of electronic and thermal Energies=             -2405.885466
 Sum of electronic and thermal Enthalpies=           -2405.884284
 Sum of electronic and thermal Free Energies=        -2406.070116

                     E (Thermal)             CV                S
                      KCal/Mol        Cal/Mol-Kelvin    Cal/Mol-Kelvin
 Total                   98.702             71.907            312.505
 Electronic               0.000              0.000              3.198
 Translational            1.112              2.981             79.283
 Rotational               1.112              2.981             68.539
 Vibrational             96.477             65.945            161.485
 Vibration     1          0.742              1.987             18.555
 Vibration     2          0.742              1.987             17.559
 Vibration     3          0.742              1.987             15.343
 Vibration     4          0.742              1.987             15.022
 Vibration     5          0.742              1.987             14.228
 Vibration     6          0.742              1.987             13.836
 Vibration     7          0.742              1.986              7.278
 Vibration     8          0.742              1.985              6.356
 Vibration     9          0.744              1.982              5.364
 Vibration    10          0.745              1.977              4.720
 Vibration    11          0.749              1.967              4.061
 Vibration    12          0.755              1.951              3.498
 Vibration    13          0.760              1.939              3.215
 Vibration    14          0.763              1.930              3.055
 Vibration    15          0.766              1.923              2.940
 Vibration    16          0.768              1.916              2.843
 Vibration    17          0.784              1.877              2.413
 Vibration    18          0.792              1.856              2.248
 Vibration    19          0.797              1.843              2.156
 Vibration    20          0.799              1.838              2.118
 Vibration    21          0.809              1.813              1.972
 Vibration    22          0.823              1.778              1.795
 Vibration    23          0.897              1.604              1.231
 Vibration    24          0.965              1.458              0.942
 Vibration    25          0.970              1.446              0.922
 Vibration    26          1.001              1.383              0.827
 Vibration    27          1.013              1.359              0.793
 Vibration    28          1.026              1.334              0.760
 Vibration    29          1.102              1.194              0.598
 Vibration    30          1.121              1.160              0.564
 Vibration    31          1.144              1.121              0.527
 Vibration    32          1.167              1.084              0.493

 Normal termination of Gaussian 09 at Thu Jun  1 23:26:09 2017.
