 Gaussian 09, Revision D.01,
 Gaussian 09:  ES64L-G09RevD.01 24-Apr-2013

 ----------------------------------------------------------------------
 #p uwb97xd/gen nosymm freq temp=373.15 scf=maxcycle=500 punch=derivati
 ves
 ----------------------------------------------------------------------

 ------
 CrSite
 ------
 Symbolic Z-matrix:
 Charge =  0 Multiplicity = 3

                          Input orientation:
 ---------------------------------------------------------------------
 Center     Atomic      Atomic             Coordinates (Angstroms)
 Number     Number       Type             X           Y           Z
 ---------------------------------------------------------------------
      1         24           0        2.281296    4.089248    5.829530
      2          8           0        3.815024    4.955716    5.484231
      3          8           0        2.461980    2.393017    5.257757
      4          8           0        4.907720    2.840014    4.232965
      5         14           0        3.708582    1.756081    4.440606
      6         14           0        5.109994    4.393341    4.683060
      7         24           0       -0.877969    4.930778    1.004426
      8          8           0       -1.729298    3.549616    1.790368
      9          8           0        0.781435    4.374084    0.579394
     10          8           0        0.611519    2.321194    2.281960
     11         14           0        1.606571    3.187674    1.320593
     12         14           0       -0.994677    2.326650    2.560914
     13          6           0       -0.966207    6.519160    2.173454
     14          6           0       -0.826314    6.211480    3.661784
     15          1           0       -1.947660    6.963907    1.947142
     16          1           0       -0.190905    7.212333    1.820638
     17          6           0        0.507636    5.544784    4.002133
     18          1           0       -0.925867    7.134619    4.242836
     19          1           0       -1.643038    5.555805    3.975220
     20          6           0        0.625495    5.080190    5.442072
     21          1           0        0.633643    4.671427    3.361660
     22          1           0        1.332525    6.216284    3.748988
     23          1           0        0.619044    5.918540    6.155100
     24          1           0       -0.187039    4.390329    5.711036
     25          9           0        3.249786    1.179660    2.998675
     26          9           0        4.336251    0.499865    5.239684
     27          9           0        6.412266    4.476048    5.638078
     28          9           0        5.454902    5.270797    3.374965
     29          9           0        2.786284    3.824719    2.235409
     30          9           0        2.331573    2.219242    0.265574
     31          9           0       -1.608038    0.907818    2.109532
     32          9           0       -1.222849    2.426894    4.162631
 ---------------------------------------------------------------------

 SCF Done:  E(UwB97XD) =  -4654.94040085     A.U. after  107 cycles

 Alpha  occ. eigenvalues -- -216.02279-216.01994 -66.43298 -66.43185 -66.42154
 Alpha  occ. eigenvalues --  -66.42017 -24.95179 -24.92643 -24.84375 -24.84177
 Alpha  occ. eigenvalues --  -24.83622 -24.83475 -24.82819 -24.82388 -24.82324
 Alpha  occ. eigenvalues --  -24.82234 -21.22120 -21.22039 -21.21616 -21.21244
 Alpha  occ. eigenvalues --  -21.20060 -21.18295 -19.29905 -19.28585 -19.28439
 Alpha  occ. eigenvalues --  -19.28410 -19.27809 -19.27744 -10.31405 -10.31383
 Alpha  occ. eigenvalues --  -10.31203 -10.30443  -5.52736  -5.52652  -5.51587
 Alpha  occ. eigenvalues --   -5.51464  -3.87407  -3.87313  -3.87301  -3.87221
 Alpha  occ. eigenvalues --   -3.87194  -3.87111  -3.86244  -3.86156  -3.86114
 Alpha  occ. eigenvalues --   -3.86057  -3.86035  -3.85939  -3.12467  -3.04020
 Alpha  occ. eigenvalues --   -2.07171  -2.07027  -2.06224  -2.01555  -1.97457
 Alpha  occ. eigenvalues --   -1.93649  -1.32578  -1.32403  -1.31113  -1.30870
 Alpha  occ. eigenvalues --   -1.30426  -1.30382  -1.29047  -1.28849  -1.15510
 Alpha  occ. eigenvalues --   -1.14228  -1.10083  -1.09956  -1.09153  -1.09124
 Alpha  occ. eigenvalues --   -0.93037  -0.84953  -0.74961  -0.71650  -0.70477
 Alpha  occ. eigenvalues --   -0.70281  -0.65890  -0.64531  -0.62072  -0.60992
 Alpha  occ. eigenvalues --   -0.60855  -0.60527  -0.59664  -0.59375  -0.59149
 Alpha  occ. eigenvalues --   -0.58848  -0.58468  -0.57928  -0.57149  -0.56131
 Alpha  occ. eigenvalues --   -0.55732  -0.55055  -0.54550  -0.54409  -0.54115
 Alpha  occ. eigenvalues --   -0.53709  -0.53485  -0.53284  -0.52945  -0.52901
 Alpha  occ. eigenvalues --   -0.52630  -0.52446  -0.52211  -0.51906  -0.51794
 Alpha  occ. eigenvalues --   -0.51649  -0.51164  -0.50859  -0.50712  -0.50189
 Alpha  occ. eigenvalues --   -0.49355  -0.49123  -0.48545  -0.47684  -0.47078
 Alpha  occ. eigenvalues --   -0.46979  -0.46827  -0.46512  -0.45953  -0.45242
 Alpha  occ. eigenvalues --   -0.45111  -0.44974  -0.44557  -0.40517  -0.39543
 Alpha  occ. eigenvalues --   -0.39006  -0.38195  -0.37737  -0.35749
 Alpha virt. eigenvalues --   -0.05126  -0.04760  -0.03650  -0.01452  -0.00909
 Alpha virt. eigenvalues --   -0.00630   0.00619   0.04900   0.06908   0.08753
 Alpha virt. eigenvalues --    0.09257   0.10064   0.10367   0.11337   0.12688

  Beta  occ. eigenvalues -- -216.02315-216.01908 -66.43291 -66.43179 -66.42152
  Beta  occ. eigenvalues --  -66.42014 -24.94190 -24.90464 -24.84373 -24.84173
  Beta  occ. eigenvalues --  -24.83622 -24.83477 -24.82821 -24.82390 -24.82326
  Beta  occ. eigenvalues --  -24.82236 -21.21893 -21.21335 -21.20266 -21.18590
  Beta  occ. eigenvalues --  -21.18412 -21.16810 -19.29902 -19.28581 -19.28385
  Beta  occ. eigenvalues --  -19.28377 -19.27799 -19.27727 -10.31492 -10.31378
  Beta  occ. eigenvalues --  -10.31348 -10.30336  -5.52728  -5.52644  -5.51584
  Beta  occ. eigenvalues --   -5.51461  -3.87400  -3.87306  -3.87294  -3.87215
  Beta  occ. eigenvalues --   -3.87182  -3.87100  -3.86245  -3.86152  -3.86116
  Beta  occ. eigenvalues --   -3.86051  -3.86031  -3.85933  -3.08189  -2.99302
  Beta  occ. eigenvalues --   -2.04148  -2.02875  -1.99183  -1.94115  -1.93801
  Beta  occ. eigenvalues --   -1.90012  -1.32574  -1.32396  -1.31117  -1.30876
  Beta  occ. eigenvalues --   -1.30427  -1.30379  -1.29051  -1.28854  -1.15475
  Beta  occ. eigenvalues --   -1.14219  -1.09818  -1.09755  -1.09213  -1.09116
  Beta  occ. eigenvalues --   -0.93032  -0.85049  -0.75016  -0.71600  -0.70497
  Beta  occ. eigenvalues --   -0.70279  -0.65698  -0.64541  -0.62000  -0.60924
  Beta  occ. eigenvalues --   -0.60723  -0.60194  -0.59629  -0.59360  -0.59065
  Beta  occ. eigenvalues --   -0.58796  -0.58238  -0.57979  -0.57160  -0.55894
  Beta  occ. eigenvalues --   -0.55603  -0.54822  -0.54468  -0.54159  -0.54026
  Beta  occ. eigenvalues --   -0.53512  -0.53446  -0.53149  -0.52790  -0.52684
  Beta  occ. eigenvalues --   -0.52588  -0.52423  -0.51991  -0.51893  -0.51868
  Beta  occ. eigenvalues --   -0.51794  -0.51170  -0.50862  -0.50750  -0.50233
  Beta  occ. eigenvalues --   -0.48731  -0.48192  -0.47617  -0.47393  -0.47353
  Beta  occ. eigenvalues --   -0.46518  -0.46162  -0.46039  -0.45422  -0.45301
  Beta  occ. eigenvalues --   -0.45189  -0.44604  -0.44456  -0.39239  -0.38599
  Beta  occ. eigenvalues --   -0.36259  -0.35984
  Beta virt. eigenvalues --   -0.03710  -0.03447  -0.03286  -0.02866  -0.00671
  Beta virt. eigenvalues --   -0.00012   0.00867   0.01225   0.02821   0.04103
  Beta virt. eigenvalues --    0.07258   0.08993   0.09520   0.10323   0.10629

 Mulliken charges and spin densities:
               1          2
     1  Cr   0.690061  -1.074122
     2  O   -0.568575  -0.003422
     3  O   -0.567366  -0.001581
     4  O   -0.438084   0.000717
     5  Si   1.034548  -0.000430
     6  Si   1.007099  -0.000645
     7  Cr   0.734126   3.148600
     8  O   -0.564138   0.017223
     9  O   -0.568375   0.011171
    10  O   -0.439476   0.000449
    11  Si   1.037618   0.009120
    12  Si   1.026782   0.008579
    13  C   -0.317264  -0.223739
    14  C   -0.154194   0.017641
    15  H    0.143714   0.013352
    16  H    0.142176   0.010430
    17  C   -0.200435   0.018011
    18  H    0.138529  -0.009693
    19  H    0.135099  -0.001556
    20  C   -0.275536   0.065863
    21  H   -0.036030  -0.003479
    22  H    0.159136  -0.000059
    23  H    0.133126   0.001620
    24  H    0.146900  -0.003047
    25  F   -0.304485  -0.000272
    26  F   -0.300016  -0.000122
    27  F   -0.306204  -0.000213
    28  F   -0.297947  -0.000272
    29  F   -0.315199   0.000143
    30  F   -0.275914  -0.000513
    31  F   -0.290625  -0.000359
    32  F   -0.309049   0.000605
 Sum of Mulliken charges =   0.00000   2.00000

 Dipole moment (field-independent basis, Debye):
    X=             -7.2259    Y=              6.8042    Z=              0.1445  Tot=              9.9263
 Quadrupole moment (field-independent basis, Debye-Ang):
   XX=           -216.8853   YY=           -133.9241   ZZ=           -160.9874
   XY=            -30.3554   XZ=            -16.6783   YZ=             17.1039

  Exact polarizability: 191.287 -20.906 183.450  10.948   5.861 168.152
 Approx polarizability: 188.229 -10.220 191.062  -0.515   6.641 173.721

 ******    2 imaginary frequencies (negative Signs) ******

                      1                      2                      3
                      A                      A                      A
 Frequencies --     -0.1425                -0.0457                 0.1283
 Red. masses -- 146387.4176            108250.5127            226836.3337
 Frc consts  --      0.0018                 0.0001                 0.0022
 IR Inten    --      0.0000                 0.0001                 0.0001

                      4                      5                      6
                      A                      A                      A
 Frequencies --      0.2156                 0.2460                 0.2703
 Red. masses -- 362137.2738             98083.3295            401947.9813
 Frc consts  --      0.0099                 0.0035                 0.0173
 IR Inten    --      0.0000                 0.0000                 0.0000

                      7                      8                      9
                      A                      A                      A
 Frequencies --      0.3168                 0.3535                 0.4629
 Red. masses -- 463868.8580            249659.1622            186131.6990
 Frc consts  --      0.0274                 0.0184                 0.0235
 IR Inten    --      0.0000                 0.0000                 0.0001

                     10                     11                     12
                      A                      A                      A
 Frequencies --      0.5088                 0.9912                 1.0127
 Red. masses -- 320544.1680            817986.9551            850266.9020
 Frc consts  --      0.0489                 0.4735                 0.5137
 IR Inten    --      0.0000                 0.0001                 0.0000

                     13                     14                     15
                      A                      A                      A
 Frequencies --      1.1273                 1.1847                 1.7066
 Red. masses --  83768.6417            239714.9205            144356.3845
 Frc consts  --      0.0627                 0.1982                 0.2477
 IR Inten    --      0.0000                 0.0000                 0.0005

                     16                     17                     18
                      A                      A                      A
 Frequencies --      1.7482                 2.0955                 2.1279
 Red. masses -- 128883.3540            280184.8018            246937.5145
 Frc consts  --      0.2321                 0.7249                 0.6588
 IR Inten    --      0.0012                 0.0014                 0.0017

                     19                     20                     21
                      A                      A                      A
 Frequencies --     39.8105                60.7620                89.2191
 Red. masses --      7.6313                 3.5500                10.1360
 Frc consts  --      0.0071                 0.0077                 0.0475
 IR Inten    --      4.4321                 1.4519                 0.3029

                     22                     23                     24
                      A                      A                      A
 Frequencies --    111.3237               132.4662               142.8864
 Red. masses --      4.2773                 3.5562                 3.1748
 Frc consts  --      0.0312                 0.0368                 0.0382
 IR Inten    --      0.4705                 0.2636                 0.2226

                     25                     26                     27
                      A                      A                      A
 Frequencies --    152.9316               158.6128               165.3528
 Red. masses --      5.5295                 5.6204                13.4932
 Frc consts  --      0.0762                 0.0833                 0.2174
 IR Inten    --      0.4225                 0.6532                12.9191

                     28                     29                     30
                      A                      A                      A
 Frequencies --    170.0565               182.9035               190.2918
 Red. masses --     15.4617                13.0644                11.7956
 Frc consts  --      0.2634                 0.2575                 0.2517
 IR Inten    --      5.7127                 3.9384                28.0868

                     31                     32                     33
                      A                      A                      A
 Frequencies --    211.4203               219.1308               222.8888
 Red. masses --      4.9135                 9.5539                10.4299
 Frc consts  --      0.1294                 0.2703                 0.3053
 IR Inten    --      5.2707                 4.2020                 9.8472

                     34                     35                     36
                      A                      A                      A
 Frequencies --    239.1205               245.3224               251.4466
 Red. masses --      8.4610                11.0768                 6.8841
 Frc consts  --      0.2850                 0.3928                 0.2564
 IR Inten    --      1.5573                 0.3458                 7.5685

                     37                     38                     39
                      A                      A                      A
 Frequencies --    252.4171               275.3627               292.3750
 Red. masses --     10.9304                 4.9013                14.5160
 Frc consts  --      0.4103                 0.2190                 0.7311
 IR Inten    --      0.5353                 8.9680                43.0706

                     40                     41                     42
                      A                      A                      A
 Frequencies --    296.8090               390.6432               503.1460
 Red. masses --     14.2843                 3.2281                 7.4308
 Frc consts  --      0.7414                 0.2902                 1.1083
 IR Inten    --     18.0796                21.1080                85.9248

                     43                     44                     45
                      A                      A                      A
 Frequencies --    506.0928               515.1931               544.8601
 Red. masses --     14.1591                 3.7072                 9.6650
 Frc consts  --      2.1367                 0.5797                 1.6905
 IR Inten    --    215.9496                34.5051                62.1338

                     46                     47                     48
                      A                      A                      A
 Frequencies --    550.5958               551.5016               577.7558
 Red. masses --      4.9140                 2.4583                 1.7878
 Frc consts  --      0.8777                 0.4405                 0.3516
 IR Inten    --     41.4275                78.0582                31.7030

                     49                     50                     51
                      A                      A                      A
 Frequencies --    605.3753               668.5874               669.8574
 Red. masses --      2.3714                17.0196                15.4453
 Frc consts  --      0.5120                 4.4825                 4.0833
 IR Inten    --     24.4362                32.5290                 3.2082

                     52                     53                     54
                      A                      A                      A
 Frequencies --    688.9343               692.8396               696.9783
 Red. masses --      9.4578                13.2432                15.6510
 Frc consts  --      2.6448                 3.7455                 4.4795
 IR Inten    --     50.1273                79.6841                76.6152

                     55                     56                     57
                      A                      A                      A
 Frequencies --    703.1002               716.3050               726.9212
 Red. masses --     21.8529                25.6912                25.6195
 Frc consts  --      6.3649                 7.7666                 7.9762
 IR Inten    --     23.3713               430.1052               151.9751

                     58                     59                     60
                      A                      A                      A
 Frequencies --    761.0592               806.5495               813.8475
 Red. masses --      1.1709                23.7490                24.0257
 Frc consts  --      0.3996                 9.1024                 9.3759
 IR Inten    --      1.9371                16.1085                13.1699

                     61                     62                     63
                      A                      A                      A
 Frequencies --    900.3463               920.9133               945.8699
 Red. masses --      1.1897                 2.0157                18.5779
 Frc consts  --      0.5682                 1.0072                 9.7929
 IR Inten    --      0.4042                 4.4882               105.3307

                     64                     65                     66
                      A                      A                      A
 Frequencies --    948.5306              1017.2749              1029.2330
 Red. masses --     18.5092                 1.7790                 4.1868
 Frc consts  --      9.8116                 1.0847                 2.6131
 IR Inten    --     19.7829               155.4698               237.1625

                     67                     68                     69
                      A                      A                      A
 Frequencies --   1040.6292              1050.8597              1079.2347
 Red. masses --      4.2770                 3.6122                 1.9297
 Frc consts  --      2.7289                 2.3502                 1.3243
 IR Inten    --    785.1945               552.2363                 4.5084

                     70                     71                     72
                      A                      A                      A
 Frequencies --   1099.1898              1118.1967              1122.8825
 Red. masses --      1.7935                17.4074                17.6286
 Frc consts  --      1.2767                12.8239                13.0960
 IR Inten    --     50.5371               644.6493               529.8170

                     73                     74                     75
                      A                      A                      A
 Frequencies --   1176.8120              1212.5595              1285.9765
 Red. masses --      1.8012                 1.5566                 1.2715
 Frc consts  --      1.4697                 1.3484                 1.2389
 IR Inten    --      8.2324                 8.7017                11.1863

                     76                     77                     78
                      A                      A                      A
 Frequencies --   1328.7980              1337.2368              1390.7688
 Red. masses --      1.2608                 1.1023                 1.3888
 Frc consts  --      1.3117                 1.1614                 1.5827
 IR Inten    --      0.4122                 0.8187                 4.3995

                     79                     80                     81
                      A                      A                      A
 Frequencies --   1429.6764              1434.0307              1492.1092
 Red. masses --      1.1212                 1.1398                 1.0723
 Frc consts  --      1.3502                 1.3811                 1.4066
 IR Inten    --      1.2585                10.4199                 1.1772

                     82                     83                     84
                      A                      A                      A
 Frequencies --   1504.8325              2994.1605              2998.9234
 Red. masses --      1.0925                 1.0576                 1.0557
 Frc consts  --      1.4576                 5.5864                 5.5939
 IR Inten    --      8.9898                27.3844                13.3455

                     85                     86                     87
                      A                      A                      A
 Frequencies --   3045.9530              3059.7219              3060.5344
 Red. masses --      1.0634                 1.0990                 1.0991
 Frc consts  --      5.8129                 6.0618                 6.0657
 IR Inten    --     20.2297                12.2199                 6.4232

                     88                     89                     90
                      A                      A                      A
 Frequencies --   3080.1462              3099.3016              3147.4313
 Red. masses --      1.0746                 1.0934                 1.0923
 Frc consts  --      6.0066                 6.1883                 6.3752
 IR Inten    --      6.3757                17.0274                37.9187

 - Thermochemistry -
 -------------------
 Temperature   373.150 Kelvin.  Pressure   1.00000 Atm.
 Atom     1 has atomic number 24 and mass  51.94051

 Molecular mass: *********** amu.
 Principal axes and moments of inertia in atomic units:
                           1         2         3
     Eigenvalues --  ******************************
           X            0.89111  -0.04489  -0.45155
           Y            0.35042  -0.56416   0.74762
           Z            0.28831   0.82445   0.48700
 This molecule is an asymmetric top.
 Rotational symmetry number  1.
 Warning -- assumption of classical behavior for rotation
           may cause significant error
 Rotational temperatures (Kelvin)      0.00000     0.00000     0.00000
 Rotational constants (GHZ):           0.00002     0.00001     0.00001
    2 imaginary frequencies ignored.
 Zero-point vibrational energy     401704.1 (Joules/Mol)
                                   96.00959 (Kcal/Mol)
 Warning -- explicit consideration of  56 degrees of freedom as
           vibrations may cause significant error
 Vibrational temperatures:      0.18     0.31     0.35     0.39     0.46
          (Kelvin)              0.51     0.67     0.73     1.43     1.46
                                1.62     1.70     2.46     2.52     3.01
                                3.06    57.28    87.42   128.37   160.17
                              190.59   205.58   220.03   228.21   237.91
                              244.67   263.16   273.79   304.19   315.28
                              320.69   344.04   352.96   361.78   363.17
                              396.19   420.66   427.04   562.05   723.91
                              728.15   741.25   783.93   792.18   793.49
                              831.26   871.00   961.95   963.77   991.22
                              996.84  1002.80  1011.60  1030.60  1045.88
                             1094.99  1160.44  1170.94  1295.40  1324.99
                             1360.89  1364.72  1463.63  1480.83  1497.23
                             1511.95  1552.78  1581.49  1608.83  1615.58
                             1693.17  1744.60  1850.23  1911.84  1923.98
                             2001.00  2056.98  2063.25  2146.81  2165.12
                             4307.92  4314.78  4382.44  4402.25  4403.42
                             4431.64  4459.20  4528.45

 Zero-point correction=                           0.153001 (Hartree/Particle)
 Thermal correction to Energy=                    0.200500
 Thermal correction to Enthalpy=                  0.201681
 Thermal correction to Gibbs Free Energy=        -0.063045
 Sum of electronic and zero-point Energies=          -4654.787400
 Sum of electronic and thermal Energies=             -4654.739901
 Sum of electronic and thermal Enthalpies=           -4654.738720
 Sum of electronic and thermal Free Energies=        -4655.003446

                     E (Thermal)             CV                S
                      KCal/Mol        Cal/Mol-Kelvin    Cal/Mol-Kelvin
 Total                  125.815            114.664            445.178
 Electronic               0.000              0.000              2.183
 Translational            1.112              2.981             74.486
 Rotational               1.112              2.981             65.728
 Vibrational            123.591            108.702            302.782
 Vibration     1          0.742              1.987             17.113
 Vibration     2          0.742              1.987             16.082
 Vibration     3          0.742              1.987             15.820
 Vibration     4          0.742              1.987             15.632
 Vibration     5          0.742              1.987             15.317
 Vibration     6          0.742              1.987             15.099
 Vibration     7          0.742              1.987             14.563
 Vibration     8          0.742              1.987             14.375
 Vibration     9          0.742              1.987             13.050
 Vibration    10          0.742              1.987             13.007
 Vibration    11          0.742              1.987             12.794
 Vibration    12          0.742              1.987             12.696
 Vibration    13          0.742              1.987             11.970
 Vibration    14          0.742              1.987             11.922
 Vibration    15          0.742              1.987             11.562
 Vibration    16          0.742              1.987             11.532
 Vibration    17          0.743              1.983              5.713
 Vibration    18          0.745              1.978              4.876
 Vibration    19          0.749              1.968              4.118
 Vibration    20          0.753              1.957              3.683
 Vibration    21          0.758              1.945              3.344
 Vibration    22          0.760              1.938              3.197
 Vibration    23          0.763              1.931              3.065
 Vibration    24          0.764              1.926              2.995
 Vibration    25          0.766              1.921              2.915
 Vibration    26          0.768              1.918              2.861
 Vibration    27          0.772              1.907              2.722
 Vibration    28          0.774              1.900              2.646
 Vibration    29          0.782              1.881              2.447
 Vibration    30          0.785              1.873              2.380
 Vibration    31          0.787              1.869              2.348
 Vibration    32          0.793              1.852              2.218
 Vibration    33          0.796              1.845              2.170
 Vibration    34          0.799              1.839              2.125
 Vibration    35          0.799              1.838              2.118
 Vibration    36          0.810              1.811              1.959
 Vibration    37          0.818              1.789              1.851
 Vibration    38          0.821              1.784              1.824
 Vibration    39          0.877              1.651              1.351
 Vibration    40          0.961              1.466              0.955
 Vibration    41          0.963              1.461              0.947
 Vibration    42          0.971              1.445              0.921
 Vibration    43          0.996              1.393              0.841
 Vibration    44          1.001              1.383              0.827
 Vibration    45          1.002              1.382              0.825
 Vibration    46          1.025              1.335              0.761
 Vibration    47          1.051              1.286              0.700
 Vibration    48          1.113              1.174              0.578
 Vibration    49          1.114              1.172              0.576
 Vibration    50          1.134              1.139              0.543
 Vibration    51          1.138              1.132              0.537
 Vibration    52          1.142              1.125              0.530
 Vibration    53          1.148              1.114              0.520
 Vibration    54          1.162              1.091              0.500
 Vibration    55          1.173              1.073              0.484
 Vibration    56          1.210              1.015              0.436

 Normal termination of Gaussian 09 at Tue Jun 20 23:12:51 2017.
