 Gaussian 09, Revision C.01,
 Gaussian 09:  EM64L-G09RevC.01 23-Sep-2011

 ------------------------------------------------------------
 #p wb97xd/TZVP nosymm geom=connectivity opt freq temp=373.15
 ------------------------------------------------------------

 (Enter /share/apps/gaussian09/g09/l101.exe)
 -------------------
 Title Card Required
 -------------------
 Charge =  0 Multiplicity = 1

 SCF Done:  E(RwB97XD) =  -78.5861680009     A.U. after   12 cycles
 SCF Done:  E(RwB97XD) =  -78.5868845835     A.U. after   11 cycles
 SCF Done:  E(RwB97XD) =  -78.5869138133     A.U. after    7 cycles
 SCF Done:  E(RwB97XD) =  -78.5869159219     A.U. after    7 cycles
 Optimization completed.
    -- Stationary point found.
 Normal termination of Gaussian 09 at Wed May  3 10:14:59 2017.

 -----------------------------------------------------------------
 #P Geom=AllCheck Guess=TCheck SCRF=Check GenChk RwB97XD/TZVP Freq
 -----------------------------------------------------------------

 Structure from the checkpoint file:  /state/partition1/96373.karakoram.cnsi.ucsb.edu/Gau-16471.chk
 -------------------
 Title Card Required
 -------------------
 Charge =  0 Multiplicity = 1

                          Input orientation:
 ---------------------------------------------------------------------
 Center     Atomic      Atomic             Coordinates (Angstroms)
 Number     Number       Type             X           Y           Z
 ---------------------------------------------------------------------
      1          6           0        0.240325    0.433425   -0.000007
      2          6           0        1.562978    0.433410    0.000000
      3          1           0       -0.328305    1.356423    0.000008
      4          1           0       -0.328325   -0.489562   -0.000025
      5          1           0        2.131608   -0.489589   -0.000013
      6          1           0        2.131628    1.356396    0.000021
 ---------------------------------------------------------------------

 SCF Done:  E(RwB97XD) =  -78.5869159219     A.U. after    1 cycles

 Alpha  occ. eigenvalues --  -10.28400 -10.28302  -0.86458  -0.67419  -0.56111
 Alpha  occ. eigenvalues --   -0.50925  -0.43878  -0.35999
 Alpha virt. eigenvalues --    0.07313   0.14640   0.17041   0.17480   0.23125
 Alpha virt. eigenvalues --    0.27529   0.28802   0.29874   0.30167   0.35118
 Alpha virt. eigenvalues --    0.39732   0.42748   0.49988   0.54939   0.55020

 Mulliken atomic charges:
              1
     1  C   -0.247303
     2  C   -0.247303
     3  H    0.123652
     4  H    0.123651
     5  H    0.123652
     6  H    0.123651
 Sum of Mulliken atomic charges =   0.00000

 Dipole moment (field-independent basis, Debye):
    X=              0.0000    Y=              0.0000    Z=              0.0000  Tot=              0.0000
 Quadrupole moment (field-independent basis, Debye-Ang):
   XX=            -12.2051   YY=            -12.1934   ZZ=            -15.6404
   XY=              0.0000   XZ=              0.0000   YZ=              0.0001

  Exact polarizability:  34.632   0.000  21.511   0.000   0.000  15.821
 Approx polarizability:  35.703   0.000  20.687   0.000   0.000  15.490

                     1                      2                      3
                     A                      A                      A
 Frequencies --   847.3694               988.8157              1001.1960
 Red. masses --     1.0424                 1.1607                 1.5193
 Frc consts  --     0.4410                 0.6687                 0.8973
 IR Inten    --     0.8702               117.0938                 0.0000

                     4                      5                      6
                     A                      A                      A
 Frequencies --  1070.2781              1249.2083              1394.3265
 Red. masses --     1.0078                 1.5256                 1.1937
 Frc consts  --     0.6802                 1.4027                 1.3673
 IR Inten    --     0.0000                 0.0000                 0.0000

                     7                      8                      9
                     A                      A                      A
 Frequencies --  1478.9234              1717.4046              3151.3608
 Red. masses --     1.1121                 3.3314                 1.0476
 Frc consts  --     1.4331                 5.7893                 6.1299
 IR Inten    --    11.9517                 0.0000                15.1337

                    10                     11                     12
                     A                      A                      A
 Frequencies --  3169.4252              3232.3280              3258.3986
 Red. masses --     1.0754                 1.1156                 1.1180
 Frc consts  --     6.3648                 6.8672                 6.9936
 IR Inten    --     0.0000                 0.0000                21.4829

 - Thermochemistry -
 -------------------
 Temperature   373.150 Kelvin.  Pressure   1.00000 Atm.
 Atom     1 has atomic number  6 and mass  12.00000

 Molecular mass:    28.03130 amu.
 Principal axes and moments of inertia in atomic units:
                           1         2         3
     Eigenvalues --    12.26420  59.26211  71.52631
           X            1.00000   0.00001  -0.00001
           Y           -0.00001   1.00000  -0.00002
           Z            0.00001   0.00002   1.00000
 This molecule is an asymmetric top.
 Rotational symmetry number  1.
 Rotational temperatures (Kelvin)      7.06233     1.46154     1.21094
 Rotational constants (GHZ):         147.15520    30.45354    25.23185
 Zero-point vibrational energy     134933.0 (Joules/Mol)
                                   32.24976 (Kcal/Mol)
 Vibrational temperatures:   1219.17  1422.68  1440.50  1539.89  1797.33
          (Kelvin)           2006.12  2127.84  2470.96  4534.10  4560.09
                             4650.59  4688.10

 Zero-point correction=                           0.051393 (Hartree/Particle)
 Thermal correction to Energy=                    0.055480
 Thermal correction to Enthalpy=                  0.056662
 Thermal correction to Gibbs Free Energy=         0.022502
 Sum of electronic and zero-point Energies=            -78.535523
 Sum of electronic and thermal Energies=               -78.531435
 Sum of electronic and thermal Enthalpies=             -78.530254
 Sum of electronic and thermal Free Energies=          -78.564414

                     E (Thermal)             CV                S
                      KCal/Mol        Cal/Mol-Kelvin    Cal/Mol-Kelvin
 Total                   34.814              9.704             57.445
 Electronic               0.000              0.000              0.000
 Translational            1.112              2.981             37.042
 Rotational               1.112              2.981             19.261
 Vibrational             32.590              3.742              1.143

 Optimization completed.
    -- Stationary point found.
 Normal termination of Gaussian 09 at Wed May  3 10:15:10 2017.
