 Gaussian 09, Revision C.01,
 Gaussian 09:  EM64L-G09RevC.01 23-Sep-2011

 ------------------------------------------------------------
 #p wb97xd/TZVP nosymm geom=connectivity opt freq temp=373.15
 ------------------------------------------------------------

 (Enter /share/apps/gaussian09/g09/l101.exe)
 -------------------
 Title Card Required
 -------------------
 Charge =  0 Multiplicity = 1

 SCF Done:  E(RwB97XD) =  -119.142801175     A.U. after   13 cycles
 SCF Done:  E(RwB97XD) =  -119.146388955     A.U. after   11 cycles
 SCF Done:  E(RwB97XD) =  -119.146418142     A.U. after    8 cycles
 SCF Done:  E(RwB97XD) =  -119.146420138     A.U. after    7 cycles
 Optimization completed.
    -- Stationary point found.
 Normal termination of Gaussian 09 at Wed May  3 10:15:28 2017.

 -----------------------------------------------------------------
 #P Geom=AllCheck Guess=TCheck SCRF=Check GenChk RwB97XD/TZVP Freq
 -----------------------------------------------------------------

 Structure from the checkpoint file:  /state/partition1/96374.karakoram.cnsi.ucsb.edu/Gau-9817.chk
 -------------------
 Title Card Required
 -------------------
 Charge =  0 Multiplicity = 1

                          Input orientation:
 ---------------------------------------------------------------------
 Center     Atomic      Atomic             Coordinates (Angstroms)
 Number     Number       Type             X           Y           Z
 ---------------------------------------------------------------------
      1          6           0       -1.748869    2.105936   -0.000022
      2          6           0       -0.224388    2.094885   -0.000025
      3          1           0       -2.143803    3.123718    0.000021
      4          1           0       -2.143697    1.594824   -0.881738
      5          1           0       -2.143694    1.594752    0.881654
      6          6           0        0.351959    0.683402   -0.000079
      7          1           0        0.143941    2.638163   -0.874802
      8          1           0        0.143946    2.638098    0.874789
      9          1           0        1.443616    0.695876   -0.000089
     10          1           0        0.023883    0.127090    0.881687
     11          1           0        0.023866    0.127151   -0.881878
 ---------------------------------------------------------------------

 SCF Done:  E(RwB97XD) =  -119.146420138     A.U. after    1 cycles

 Alpha  occ. eigenvalues --  -10.27566 -10.26686 -10.26684  -0.88086  -0.77697
 Alpha  occ. eigenvalues --   -0.67741  -0.54548  -0.52402  -0.48274  -0.46371
 Alpha  occ. eigenvalues --   -0.41909  -0.41780  -0.40734
 Alpha virt. eigenvalues --    0.11519   0.15853   0.16488   0.17264   0.18504
 Alpha virt. eigenvalues --    0.20068   0.22003   0.22744   0.23090   0.28488
 Alpha virt. eigenvalues --    0.29699   0.30524   0.30793   0.35183   0.35239

 Mulliken atomic charges:
              1
     1  C   -0.356320
     2  C   -0.185417
     3  H    0.123076
     4  H    0.109195
     5  H    0.109195
     6  C   -0.356335
     7  H    0.107527
     8  H    0.107527
     9  H    0.123059
    10  H    0.109247
    11  H    0.109246
 Sum of Mulliken atomic charges =   0.00000

 Dipole moment (field-independent basis, Debye):
    X=              0.0482    Y=              0.0716    Z=              0.0000  Tot=              0.0863
 Quadrupole moment (field-independent basis, Debye-Ang):
   XX=            -22.1197   YY=            -21.7332   ZZ=            -21.3881
   XY=              0.1738   XZ=              0.0000   YZ=              0.0000

  Exact polarizability:  39.807  -1.827  38.318   0.000   0.000  36.035
 Approx polarizability:  37.526   0.147  37.638   0.000   0.000  38.141

                     1                      2                      3
                     A                      A                      A
 Frequencies --   211.6392               264.7562               371.2314
 Red. masses --     1.0297                 1.1340                 2.0378
 Frc consts  --     0.0272                 0.0468                 0.1655
 IR Inten    --     0.0000                 0.0007                 0.0290

                     4                      5                      6
                     A                      A                      A
 Frequencies --   761.4117               886.3314               920.7729
 Red. masses --     1.0784                 2.5182                 1.1016
 Frc consts  --     0.3684                 1.1656                 0.5503
 IR Inten    --     3.0058                 0.9285                 0.0005

                     7                      8                      9
                     A                      A                      A
 Frequencies --   937.7216              1077.1823              1184.0014
 Red. masses --     1.1955                 2.3686                 1.8116
 Frc consts  --     0.6194                 1.6193                 1.4963
 IR Inten    --     1.8400                 0.7497                 1.3619

                    10                     11                     12
                     A                      A                      A
 Frequencies --  1219.5213              1322.6946              1371.4944
 Red. masses --     1.6686                 1.1253                 1.3799
 Frc consts  --     1.4621                 1.1600                 1.5293
 IR Inten    --     0.2179                 0.0003                 0.9149

                    13                     14                     15
                     A                      A                      A
 Frequencies --  1415.6843              1428.4733              1493.5284
 Red. masses --     1.3237                 1.2399                 1.0355
 Frc consts  --     1.5630                 1.4907                 1.3609
 IR Inten    --     7.6064                 4.3912                 0.1122

                    16                     17                     18
                     A                      A                      A
 Frequencies --  1501.7811              1506.5963              1511.8212
 Red. masses --     1.0409                 1.0555                 1.0397
 Frc consts  --     1.3832                 1.4116                 1.4001
 IR Inten    --     0.6731                 1.9721                16.5615

                    19                     20                     21
                     A                      A                      A
 Frequencies --  1520.4663              3046.8164              3052.4257
 Red. masses --     1.0822                 1.0361                 1.0361
 Frc consts  --     1.4741                 5.6668                 5.6878
 IR Inten    --     7.5906                29.5209                24.8121

                    22                     23                     24
                     A                      A                      A
 Frequencies --  3056.8704              3084.9819              3115.6299
 Red. masses --     1.0610                 1.1024                 1.1030
 Frc consts  --     5.8413                 6.1813                 6.3081
 IR Inten    --    31.2160                 1.7655                 5.2302

                    25                     26                     27
                     A                      A                      A
 Frequencies --  3128.0360              3129.4257              3132.3054
 Red. masses --     1.1034                 1.1022                 1.1010
 Frc consts  --     6.3610                 6.3597                 6.3645
 IR Inten    --    95.1450                30.5880                49.6443

 - Thermochemistry -
 -------------------
 Temperature   373.150 Kelvin.  Pressure   1.00000 Atm.
 Atom     1 has atomic number  6 and mass  12.00000

 Molecular mass:    44.06260 amu.
 Principal axes and moments of inertia in atomic units:
                           1         2         3
     Eigenvalues --    61.00374 213.05199 240.65410
           X            0.82807   0.56063   0.00000
           Y           -0.56063   0.82807  -0.00004
           Z           -0.00002   0.00003   1.00000
 This molecule is an asymmetric top.
 Rotational symmetry number  1.
 Rotational temperatures (Kelvin)      1.41981     0.40654     0.35991
 Rotational constants (GHZ):          29.58411     8.47090     7.49932
 Zero-point vibrational energy     273069.2 (Joules/Mol)
                                   65.26510 (Kcal/Mol)
 Warning -- explicit consideration of   4 degrees of freedom as
           vibrations may cause significant error
 Vibrational temperatures:    304.50   380.92   534.12  1095.50  1275.23
          (Kelvin)           1324.79  1349.17  1549.82  1703.51  1754.62
                             1903.06  1973.27  2036.85  2055.25  2148.85
                             2160.73  2167.65  2175.17  2187.61  4383.68
                             4391.75  4398.15  4438.60  4482.69  4500.54
                             4502.54  4506.68

 Zero-point correction=                           0.104007 (Hartree/Particle)
 Thermal correction to Energy=                    0.110513
 Thermal correction to Enthalpy=                  0.111695
 Thermal correction to Gibbs Free Energy=         0.070237
 Sum of electronic and zero-point Energies=           -119.042414
 Sum of electronic and thermal Energies=              -119.035907
 Sum of electronic and thermal Enthalpies=            -119.034725
 Sum of electronic and thermal Free Energies=         -119.076183

                     E (Thermal)             CV                S
                      KCal/Mol        Cal/Mol-Kelvin    Cal/Mol-Kelvin
 Total                   69.348             18.206             69.718
 Electronic               0.000              0.000              0.000
 Translational            1.112              2.981             38.390
 Rotational               1.112              2.981             23.332
 Vibrational             67.123             12.244              7.996
 Vibration     1          0.782              1.881              2.445
 Vibration     2          0.805              1.823              2.030
 Vibration     3          0.864              1.680              1.436
 Vibration     4          1.211              1.014              0.435

 Optimization completed.
    -- Stationary point found.
 Normal termination of Gaussian 09 at Wed May  3 10:16:10 2017.
