 Gaussian 09, Revision C.01,
 Gaussian 09:  EM64L-G09RevC.01 23-Sep-2011

 -------------------------
 #p hf/3-21g freq=internal
 -------------------------

 (Enter /share/apps/gaussian09/g09/l101.exe)
 -------------------
 Title Card Required
 -------------------
 Charge =  0 Multiplicity = 1

                         Standard orientation:
 ---------------------------------------------------------------------
 Center     Atomic      Atomic             Coordinates (Angstroms)
 Number     Number       Type             X           Y           Z
 ---------------------------------------------------------------------
      1         14           0       -0.040393   -0.049108   -0.093490
      2          6           0        0.623016    0.757419    1.441952
      3          1           0        0.959080    0.015693    2.157536
      4          1           0        1.464078    1.401360    1.211490
      5          1           0       -0.136536    1.362857    1.923285
      6          9           0       -1.346391   -1.020515    0.433330
      7          9           0        1.263683   -0.956672   -0.727927
      8          9           0       -0.523872    1.239752   -1.109310
 ---------------------------------------------------------------------

 SCF Done:  E(RHF) =  -623.697014910     A.U. after   11 cycles

 The electronic state is 1-A.
 Alpha  occ. eigenvalues --  -68.49565 -26.16158 -26.16125 -26.16125 -11.18626
 Alpha  occ. eigenvalues --   -6.27363  -4.37165  -4.37084  -4.37084  -1.57597
 Alpha  occ. eigenvalues --   -1.55767  -1.55767  -0.99535  -0.77005  -0.68360
 Alpha  occ. eigenvalues --   -0.68360  -0.67132  -0.63609  -0.63609  -0.62250
 Alpha  occ. eigenvalues --   -0.62250  -0.62128  -0.58514  -0.58514  -0.51029
 Alpha virt. eigenvalues --    0.12733   0.22737   0.22737   0.23721   0.31078
 Alpha virt. eigenvalues --    0.31078   0.34818   0.47836   0.52750   0.56478
 Alpha virt. eigenvalues --    0.56478   0.96579   0.96579   1.04976   1.31390

 Mulliken atomic charges:
              1
     1  Si   1.915102
     2  C   -1.197835
     3  H    0.260472
     4  H    0.260472
     5  H    0.260473
     6  F   -0.499561
     7  F   -0.499561
     8  F   -0.499561
 Sum of Mulliken atomic charges =   0.00000

 Dipole moment (field-independent basis, Debye):
    X=              0.6381    Y=              0.7758    Z=              1.4769  Tot=              1.7861
 Quadrupole moment (field-independent basis, Debye-Ang):
   XX=            -37.8736   YY=            -37.4487   ZZ=            -34.0005
   XY=              1.0808   XZ=              2.0575   YZ=              2.5014

  Exact polarizability:  23.416  -0.262  23.313  -0.499  -0.607  22.477
 Approx polarizability:  19.987  -0.663  19.727  -1.261  -1.533  17.613

                     1                      2                      3
                     A                      A                      A
 Frequencies --   164.0184               241.7310               241.7311
 Red. masses --     1.0268                 4.3352                 4.3352
 Frc consts  --     0.0163                 0.1493                 0.1493
 IR Inten    --     0.0000                 0.0023                 0.0023
 Raman Activ --     0.0000                 0.7024                 0.7024

                     4                      5                      6
                     A                      A                      A
 Frequencies --   356.7330               356.7331               403.1913
 Red. masses --     9.4928                 9.4928                10.5499
 Frc consts  --     0.7118                 0.7118                 1.0105
 IR Inten    --    24.0098                24.0098                89.9606
 Raman Activ --     1.1343                 1.1343                 1.6501

                     7                      8                      9
                     A                      A                      A
 Frequencies --   616.4320               820.3120               820.3123
 Red. masses --     9.9895                 6.4583                 6.4583
 Frc consts  --     2.2365                 2.5605                 2.5605
 IR Inten    --    23.0460                88.3736                88.3735
 Raman Activ --    11.1543                 2.4523                 2.4523

                    10                     11                     12
                     A                      A                      A
 Frequencies --   872.6165              1002.4522              1002.4525
 Red. masses --     6.9440                 1.5284                 1.5284
 Frc consts  --     3.1154                 0.9049                 0.9049
 IR Inten    --   191.0996               121.1167               121.1166
 Raman Activ --     3.6177                 1.5554                 1.5554

                    13                     14                     15
                     A                      A                      A
 Frequencies --  1534.3609              1627.8508              1627.8515
 Red. masses --     1.2125                 1.0493                 1.0493
 Frc consts  --     1.6818                 1.6383                 1.6383
 IR Inten    --    73.3692                15.6180                15.6181
 Raman Activ --     1.6809                18.8313                18.8313

                    16                     17                     18
                     A                      A                      A
 Frequencies --  3209.4814              3281.3082              3281.3115
 Red. masses --     1.0361                 1.0986                 1.0986
 Frc consts  --     6.2881                 6.9693                 6.9694
 IR Inten    --     0.0052                 1.2745                 1.2744
 Raman Activ --    96.2053                66.9970                66.9968

 - Thermochemistry -
 -------------------
 Temperature   298.150 Kelvin.  Pressure   1.00000 Atm.
 Atom     1 has atomic number 14 and mass  27.97693

 Molecular mass:    99.99561 amu.
 Principal axes and moments of inertia in atomic units:
                           1         2         3
     Eigenvalues --   526.12394 526.12404 565.00534
           X            0.01855   0.93382   0.35726
           Y            0.88182  -0.18368   0.43433
           Z           -0.47121  -0.30699   0.82687
 This molecule is an asymmetric top.
 Rotational symmetry number  1.
 Warning -- assumption of classical behavior for rotation
           may cause significant error
 Rotational temperatures (Kelvin)      0.16463     0.16463     0.15330
 Rotational constants (GHZ):           3.43026     3.43026     3.19420
 Zero-point vibrational energy     128364.6 (Joules/Mol)
                                   30.67987 (Kcal/Mol)
 Warning -- explicit consideration of   7 degrees of freedom as
           vibrations may cause significant error
 Vibrational temperatures:    235.99   347.80   347.80   513.26   513.26
          (Kelvin)            580.10   886.91  1180.24  1180.24  1255.50
                             1442.30  1442.30  2207.60  2342.11  2342.11
                             4617.72  4721.06  4721.07

 Zero-point correction=                           0.048891 (Hartree/Particle)
 Thermal correction to Energy=                    0.054793
 Thermal correction to Enthalpy=                  0.055737
 Thermal correction to Gibbs Free Energy=         0.019274
 Sum of electronic and zero-point Energies=           -623.648123
 Sum of electronic and thermal Energies=              -623.642222
 Sum of electronic and thermal Enthalpies=            -623.641277
 Sum of electronic and thermal Free Energies=         -623.677741

                     E (Thermal)             CV                S
                      KCal/Mol        Cal/Mol-Kelvin    Cal/Mol-Kelvin
 Total                   34.383             19.669             76.745
 Electronic               0.000              0.000              0.000
 Translational            0.889              2.981             39.718
 Rotational               0.889              2.981             26.550
 Vibrational             32.606             13.708             10.477
 Vibration     1          0.623              1.887              2.503
 Vibration     2          0.658              1.776              1.790
 Vibration     3          0.658              1.776              1.790
 Vibration     4          0.732              1.561              1.136
 Vibration     5          0.732              1.561              1.136
 Vibration     6          0.769              1.463              0.951
 Vibration     7          0.976              0.997              0.422

 Normal termination of Gaussian 09 at Tue Feb 28 13:51:29 2017.
