 Gaussian 09, Revision D.01,
 Gaussian 09:  ES64L-G09RevD.01 24-Apr-2013

 -------------------------
 #p freq wb97xd/gen nosymm
 -------------------------

 -------------------------------------------------------------
 Phillips two silanols ugliengo 5.4 26-130 top O plus ethylene
 -------------------------------------------------------------
 Symbolic Z-matrix:
 Charge =  0 Multiplicity = 5

                          Input orientation:
 ---------------------------------------------------------------------
 Center     Atomic      Atomic             Coordinates (Angstroms)
 Number     Number       Type             X           Y           Z
 ---------------------------------------------------------------------
      1          8           0       10.463299    6.287469   31.272062
      2          8           0        8.326396    7.909938   30.340861
      3         14           0       10.937024    6.018918   29.776247
      4         14           0        7.723243    8.654588   29.089256
      5         24           0        9.295811    7.627875   31.928338
      6          6           0        9.742649    6.571549   34.100401
      7          1           0        9.900959    5.594281   33.658762
      8          1           0        8.849335    6.713729   34.699123
      9          6           0       10.670632    7.531637   33.987303
     10          1           0       11.600146    7.345882   33.460994
     11          1           0       10.560648    8.484939   34.492433
     12          6           0        8.551875    9.919318   32.569281
     13          1           0        9.325424   10.319996   33.215783
     14          1           0        8.516760   10.288902   31.549742
     15          6           0        7.610963    9.092513   33.044620
     16          1           0        7.589983    8.803560   34.089742
     17          1           0        6.785669    8.765150   32.421853
     18          9           0       10.828510    7.424675   28.924805
     19          9           0        8.300545    8.263031   27.633862
     20          9           0        7.998128   10.284218   29.214369
     21          9           0       10.156859    4.759856   29.082461
     22          9           0       12.500035    5.579892   29.680776
     23          9           0        6.128010    8.301385   28.983845
 ---------------------------------------------------------------------

 SCF Done:  E(UwB97XD) =  -2530.49883759     A.U. after   25 cycles

 Alpha  occ. eigenvalues -- -215.96699 -66.40991 -66.40641 -24.89472 -24.82027
 Alpha  occ. eigenvalues --  -24.81208 -24.81114 -24.81080 -24.80890 -24.80715
 Alpha  occ. eigenvalues --  -21.16465 -21.16310 -21.15932 -19.23690 -19.23610
 Alpha  occ. eigenvalues --  -10.35818 -10.35725 -10.35713 -10.35593  -5.50349
 Alpha  occ. eigenvalues --   -5.49998  -3.85014  -3.84972  -3.84755  -3.84668
 Alpha  occ. eigenvalues --   -3.84614  -3.84395  -3.08204  -2.02845  -2.02734
 Alpha  occ. eigenvalues --   -2.02648  -1.30205  -1.29752  -1.27816  -1.27383
 Alpha  occ. eigenvalues --   -1.27267  -1.26967  -1.06542  -1.05837  -0.94394
 Alpha  occ. eigenvalues --   -0.93720  -0.74748  -0.74042  -0.65050  -0.64749
 Alpha  occ. eigenvalues --   -0.63681  -0.62267  -0.57985  -0.57817  -0.57447
 Alpha  occ. eigenvalues --   -0.57403  -0.57182  -0.56772  -0.56581  -0.55709
 Alpha  occ. eigenvalues --   -0.52645  -0.52131  -0.51913  -0.51481  -0.51331
 Alpha  occ. eigenvalues --   -0.51027  -0.50653  -0.50376  -0.50036  -0.49791
 Alpha  occ. eigenvalues --   -0.49568  -0.49023  -0.48045  -0.47575  -0.46475
 Alpha  occ. eigenvalues --   -0.45931  -0.45169  -0.43877  -0.43818  -0.40778
 Alpha  occ. eigenvalues --   -0.36626  -0.36240  -0.35505  -0.34830
 Alpha virt. eigenvalues --   -0.02728   0.00632   0.01586   0.05331   0.07859
 Alpha virt. eigenvalues --    0.10097   0.10928   0.11920   0.13645   0.14187
 Alpha virt. eigenvalues --    0.15163   0.15586   0.16339   0.17005   0.18466

  Beta  occ. eigenvalues -- -215.96584 -66.40989 -66.40634 -24.83913 -24.82022
  Beta  occ. eigenvalues --  -24.81208 -24.81108 -24.81075 -24.80887 -24.80717
  Beta  occ. eigenvalues --  -21.12161 -21.11963 -21.10459 -19.23618 -19.23555
  Beta  occ. eigenvalues --  -10.35807 -10.35718 -10.35694 -10.35597  -5.50348
  Beta  occ. eigenvalues --   -5.49991  -3.85009  -3.84968  -3.84756  -3.84663
  Beta  occ. eigenvalues --   -3.84607  -3.84382  -2.92565  -1.87227  -1.86896
  Beta  occ. eigenvalues --   -1.83414  -1.30194  -1.29744  -1.27806  -1.27373
  Beta  occ. eigenvalues --   -1.27258  -1.26964  -1.06227  -1.05568  -0.94301
  Beta  occ. eigenvalues --   -0.93646  -0.74535  -0.73835  -0.64959  -0.64604
  Beta  occ. eigenvalues --   -0.63569  -0.62196  -0.57854  -0.57764  -0.57371
  Beta  occ. eigenvalues --   -0.57337  -0.57122  -0.56735  -0.56316  -0.55385
  Beta  occ. eigenvalues --   -0.52561  -0.52065  -0.51892  -0.51415  -0.51260
  Beta  occ. eigenvalues --   -0.50816  -0.50493  -0.50125  -0.49799  -0.49584
  Beta  occ. eigenvalues --   -0.49367  -0.48967  -0.48033  -0.47567  -0.45919
  Beta  occ. eigenvalues --   -0.44457  -0.43449  -0.42230  -0.41642  -0.40214
  Beta virt. eigenvalues --   -0.05409  -0.01979   0.00746   0.04392   0.06079
  Beta virt. eigenvalues --    0.06689   0.07476   0.08787   0.09047   0.10107
  Beta virt. eigenvalues --    0.11310   0.13162   0.13911   0.14263   0.15265

 Mulliken charges and spin densities:
               1          2
     1  O   -0.609077   0.016983
     2  O   -0.632971   0.032644
     3  Si   1.159088   0.009085
     4  Si   1.083264   0.008654
     5  Cr   0.386404   3.888064
     6  C   -0.228065  -0.011930
     7  H    0.204003   0.004641
     8  H    0.169599   0.004363
     9  C   -0.216750   0.019938
    10  H    0.199047   0.003462
    11  H    0.174495   0.002094
    12  C   -0.239937  -0.015689
    13  H    0.168418   0.003966
    14  H    0.184585   0.004524
    15  C   -0.238473   0.020638
    16  H    0.175144   0.002199
    17  H    0.198696   0.003240
    18  F   -0.322436   0.001372
    19  F   -0.307895   0.000564
    20  F   -0.335124   0.000987
    21  F   -0.320835   0.000781
    22  F   -0.324879  -0.000389
    23  F   -0.326299  -0.000192
 Sum of Mulliken charges =   0.00000   4.00000

 Dipole moment (field-independent basis, Debye):
    X=             -0.6102    Y=              2.7364    Z=             10.9508  Tot=             11.3040
 Quadrupole moment (field-independent basis, Debye-Ang):
   XX=           -126.5069   YY=            -69.8093   ZZ=            576.9611
   XY=             27.5756   XZ=             80.6728   YZ=            170.4857

  Exact polarizability: 104.121  -7.815 105.757   1.586   2.462 118.066
 Approx polarizability: 111.060   5.401 112.700  -1.944  -0.914 109.262

 ******    1 imaginary frequencies (negative Signs) ******

                      1                      2                      3
                      A                      A                      A
 Frequencies --     -0.0057                 0.0224                 0.0309
 Red. masses --1146602.8004           1157898.1758           ************
 Frc consts  --      0.0000                 0.0003                 0.0089
 IR Inten    --      0.0000                 0.0000                 0.0000

                      4                      5                      6
                      A                      A                      A
 Frequencies --      0.0367                 0.0648                 0.0755
 Red. masses --1525326.8621           1289539.6307           ************
 Frc consts  --      0.0012                 0.0032                 0.0365
 IR Inten    --      0.0000                 0.0000                 0.0000

                      7                      8                      9
                      A                      A                      A
 Frequencies --      0.1344                 0.1429                 0.1486
 Red. masses -- 275797.8258           ************           4037648.9526
 Frc consts  --      0.0029                 0.3087                 0.0525
 IR Inten    --      0.0001                 0.0000                 0.0000

                     10                     11                     12
                      A                      A                      A
 Frequencies --      0.1548                 0.2307                 0.2326
 Red. masses --6067916.0221            989042.9990           7109576.6807
 Frc consts  --      0.0857                 0.0310                 0.2267
 IR Inten    --      0.0000                 0.0000                 0.0000

                     13                     14                     15
                      A                      A                      A
 Frequencies --      9.3115                25.7801                65.6735
 Red. masses --      5.0051                 4.1131                 4.4066
 Frc consts  --      0.0003                 0.0016                 0.0112
 IR Inten    --      4.3843                 0.0677                 4.7657

                     16                     17                     18
                      A                      A                      A
 Frequencies --     94.6082               114.3286               123.6023
 Red. masses --      2.2841                 7.1808                 2.9397
 Frc consts  --      0.0120                 0.0553                 0.0265
 IR Inten    --      0.4148                 0.2076                 0.7232

                     19                     20                     21
                      A                      A                      A
 Frequencies --    129.3552               153.4247               166.6186
 Red. masses --      3.8781                 3.9111                 4.8090
 Frc consts  --      0.0382                 0.0542                 0.0787
 IR Inten    --      6.1166                 0.7329                 4.1165

                     22                     23                     24
                      A                      A                      A
 Frequencies --    201.4115               231.6805               234.7429
 Red. masses --      6.5827                 7.4957                11.4694
 Frc consts  --      0.1573                 0.2371                 0.3724
 IR Inten    --      2.5782                 6.6347                 5.7050

                     25                     26                     27
                      A                      A                      A
 Frequencies --    255.4438               270.5825               284.7420
 Red. masses --      4.2393                 4.1942                 3.6050
 Frc consts  --      0.1630                 0.1809                 0.1722
 IR Inten    --     18.4844                 8.0608                 6.9579

                     28                     29                     30
                      A                      A                      A
 Frequencies --    298.4300               354.1437               380.3401
 Red. masses --     15.7614                 1.3094                 6.4468
 Frc consts  --      0.8270                 0.0968                 0.5495
 IR Inten    --     51.9705                 0.2587                37.1928

                     31                     32                     33
                      A                      A                      A
 Frequencies --    393.0227               567.2953               586.0857
 Red. masses --      1.1167                22.0282                19.4758
 Frc consts  --      0.1016                 4.1768                 3.9416
 IR Inten    --      1.7762                31.4592                59.4748

                     34                     35                     36
                      A                      A                      A
 Frequencies --    669.7754               680.0710               688.4190
 Red. masses --     26.4829                26.5412                26.8500
 Frc consts  --      6.9996                 7.2324                 7.4972
 IR Inten    --     82.6837               236.7448               114.9746

                     37                     38                     39
                      A                      A                      A
 Frequencies --    700.0256               845.0769               855.2559
 Red. masses --     27.0304                 1.0420                 1.0417
 Frc consts  --      7.8042                 0.4384                 0.4490
 IR Inten    --    163.3963                 0.4426                 0.9489

                     40                     41                     42
                      A                      A                      A
 Frequencies --   1007.1222              1025.4287              1029.3570
 Red. masses --      1.3414                 1.2192                 1.3251
 Frc consts  --      0.8017                 0.7553                 0.8272
 IR Inten    --     24.9103                65.8669                21.7178

                     43                     44                     45
                      A                      A                      A
 Frequencies --   1043.8737              1068.7231              1079.8929
 Red. masses --      1.1882                17.5088                 1.0180
 Frc consts  --      0.7628                11.7825                 0.6995
 IR Inten    --     54.1320               519.3932                 0.1319

                     46                     47                     48
                      A                      A                      A
 Frequencies --   1089.7691              1148.5340              1250.3517
 Red. masses --      1.0285                18.2920                 1.4955
 Frc consts  --      0.7197                14.2167                 1.3776
 IR Inten    --      7.5301               825.8417                 0.1206

                     49                     50                     51
                      A                      A                      A
 Frequencies --   1255.3818              1372.2018              1377.5457
 Red. masses --      1.4926                 1.3046                 1.3186
 Frc consts  --      1.3859                 1.4473                 1.4743
 IR Inten    --      0.0478                 0.1541                 0.2214

                     52                     53                     54
                      A                      A                      A
 Frequencies --   1473.2681              1476.3994              1658.7076
 Red. masses --      1.1124                 1.1143                 2.7203
 Frc consts  --      1.4226                 1.4311                 4.4097
 IR Inten    --      0.8149                30.7595                 0.3170

                     55                     56                     57
                      A                      A                      A
 Frequencies --   1664.6068              3149.6422              3154.8382
 Red. masses --      2.6655                 1.0483                 1.0480
 Frc consts  --      4.3517                 6.1271                 6.1458
 IR Inten    --      3.2092                 1.1781                 0.1076

                     58                     59                     60
                      A                      A                      A
 Frequencies --   3160.0851              3165.0985              3239.9177
 Red. masses --      1.0719                 1.0710                 1.1178
 Frc consts  --      6.3068                 6.3217                 6.9132
 IR Inten    --     11.5976                 5.5425                 4.5075

                     61                     62                     63
                      A                      A                      A
 Frequencies --   3246.8478              3261.0345              3267.9664
 Red. masses --      1.1174                 1.1179                 1.1178
 Frc consts  --      6.9401                 7.0041                 7.0335
 IR Inten    --      2.1233                 0.6008                 0.0312

 - Thermochemistry -
 -------------------
 Temperature   298.150 Kelvin.  Pressure   1.00000 Atm.
 Atom     1 has atomic number  8 and mass  15.99491

 Molecular mass: *********** amu.
 Principal axes and moments of inertia in atomic units:
                           1         2         3
     Eigenvalues --  ******************************
           X            0.76741   0.62535  -0.14149
           Y           -0.63288   0.77417  -0.01100
           Z            0.10266   0.09798   0.98988
 This molecule is an asymmetric top.
 Rotational symmetry number  1.
 Warning -- assumption of classical behavior for rotation
           may cause significant error
 Rotational temperatures (Kelvin)      0.00000     0.00000     0.00000
 Rotational constants (GHZ):           0.00000     0.00000     0.00000
    1 imaginary frequencies ignored.
 Zero-point vibrational energy     329254.9 (Joules/Mol)
                                   78.69380 (Kcal/Mol)
 Warning -- explicit consideration of  32 degrees of freedom as
           vibrations may cause significant error
 Vibrational temperatures:      0.03     0.04     0.05     0.09     0.11
          (Kelvin)              0.19     0.21     0.21     0.22     0.33
                                0.33    13.40    37.09    94.49   136.12
                              164.49   177.84   186.11   220.74   239.73
                              289.79   333.34   337.74   367.53   389.31
                              409.68   429.37   509.53   547.22   565.47
                              816.21   843.25   963.66   978.47   990.48
                             1007.18  1215.88  1230.52  1449.02  1475.36
                             1481.01  1501.90  1537.65  1553.72  1567.93
                             1652.48  1798.97  1806.21  1974.29  1981.98
                             2119.70  2124.21  2386.51  2394.99  4531.63
                             4539.10  4546.65  4553.87  4661.51  4671.48
                             4691.90  4701.87

 Zero-point correction=                           0.125407 (Hartree/Particle)
 Thermal correction to Energy=                    0.150938
 Thermal correction to Enthalpy=                  0.151882
 Thermal correction to Gibbs Free Energy=        -0.043812
 Sum of electronic and zero-point Energies=          -2530.373431
 Sum of electronic and thermal Energies=             -2530.347900
 Sum of electronic and thermal Enthalpies=           -2530.346956
 Sum of electronic and thermal Free Energies=        -2530.542650

                     E (Thermal)             CV                S
                      KCal/Mol        Cal/Mol-Kelvin    Cal/Mol-Kelvin
 Total                   94.715             72.232            411.873
 Electronic               0.000              0.000              3.198
 Translational            0.889              2.981             86.240
 Rotational               0.889              2.981             76.230
 Vibrational             92.937             66.270            246.204
 Vibration     1          0.592              1.987             20.131
 Vibration     2          0.592              1.987             19.494
 Vibration     3          0.592              1.987             19.153
 Vibration     4          0.592              1.987             18.024
 Vibration     5          0.592              1.987             17.720
 Vibration     6          0.592              1.987             16.575
 Vibration     7          0.592              1.987             16.453
 Vibration     8          0.592              1.987             16.376
 Vibration     9          0.592              1.987             16.294
 Vibration    10          0.592              1.987             15.501
 Vibration    11          0.592              1.987             15.484
 Vibration    12          0.593              1.987              8.153
 Vibration    13          0.593              1.985              6.130
 Vibration    14          0.597              1.971              4.279
 Vibration    15          0.603              1.953              3.562
 Vibration    16          0.607              1.938              3.194
 Vibration    17          0.610              1.929              3.043
 Vibration    18          0.612              1.924              2.956
 Vibration    19          0.619              1.899              2.629
 Vibration    20          0.624              1.884              2.473
 Vibration    21          0.638              1.838              2.120
 Vibration    22          0.653              1.793              1.866
 Vibration    23          0.655              1.788              1.842
 Vibration    24          0.666              1.754              1.693
 Vibration    25          0.674              1.727              1.592
 Vibration    26          0.683              1.702              1.505
 Vibration    27          0.692              1.677              1.426
 Vibration    28          0.730              1.567              1.148
 Vibration    29          0.750              1.512              1.038
 Vibration    30          0.760              1.485              0.989
 Vibration    31          0.923              1.102              0.509
 Vibration    32          0.943              1.061              0.474

 Normal termination of Gaussian 09 at Fri May  5 17:14:33 2017.
