 Gaussian 09, Revision C.01,
 Gaussian 09:  EM64L-G09RevC.01 23-Sep-2011

 -------------------------------------------------------
 #p wb97xd/gen nosymm geom=connectivity freq temp=373.15
 -------------------------------------------------------

 (Enter /share/apps/gaussian09/g09/l101.exe)
 -------------------
 Title Card Required
 -------------------
 Charge =  0 Multiplicity = 1

                          Input orientation:
 ---------------------------------------------------------------------
 Center     Atomic      Atomic             Coordinates (Angstroms)
 Number     Number       Type             X           Y           Z
 ---------------------------------------------------------------------
      1         14           0       -1.742775    0.400722   -1.178414
      2          8           0       -1.196862    1.254934    0.079489
      3          9           0       -1.195433   -1.119540   -1.151769
      4          9           0       -1.244818    1.098738   -2.532962
      5          9           0       -3.354018    0.351855   -1.243545
      6          1           0       -1.292218    0.915350    0.968303
 ---------------------------------------------------------------------

 SCF Done:  E(RwB97XD) =  -664.960947595     A.U. after   14 cycles

 Alpha  occ. eigenvalues --  -66.44921 -24.84699 -24.84536 -24.84529 -19.30503
 Alpha  occ. eigenvalues --   -5.54419  -3.89078  -3.89022  -3.88847  -1.34028
 Alpha  occ. eigenvalues --   -1.31335  -1.31197  -1.16395  -0.71552  -0.64780
 Alpha  occ. eigenvalues --   -0.60902  -0.60658  -0.56524  -0.55406  -0.55308
 Alpha  occ. eigenvalues --   -0.53521  -0.53256  -0.51382  -0.49651  -0.47010
 Alpha virt. eigenvalues --    0.06635   0.13392   0.15707   0.17166   0.20085
 Alpha virt. eigenvalues --    0.30472   0.30947   0.32957   0.34312   0.45034
 Alpha virt. eigenvalues --    0.50852   0.53092   0.59346   0.60863   0.69083

 Mulliken atomic charges:
              1
     1  Si   1.084224
     2  O   -0.489326
     3  F   -0.310315
     4  F   -0.301283
     5  F   -0.307458
     6  H    0.324157
 Sum of Mulliken atomic charges =   0.00000

 Dipole moment (field-independent basis, Debye):
    X=              0.1428    Y=             -0.1577    Z=              2.5425  Tot=              2.5513
 Quadrupole moment (field-independent basis, Debye-Ang):
   XX=            -35.6554   YY=            -35.8929   ZZ=            -33.3456
   XY=              0.0231   XZ=             -3.9386   YZ=              1.4945

  Exact polarizability:  18.435   0.334  18.876   0.555   0.405  20.820
 Approx polarizability:  18.632   0.213  19.115   0.139  -0.334  20.113

                     1                      2                      3
                     A                      A                      A
 Frequencies --     0.0040                 0.0044                 0.0076
 Red. masses --***********            ***********            ***********
 Frc consts  --     0.0268                 0.3823                 1.2935
 IR Inten    --     0.0000                 0.0000                 0.0000

                     4                      5                      6
                     A                      A                      A
 Frequencies --   125.2314               190.9021               226.4300
 Red. masses --     1.1802                 5.7081                 4.6298
 Frc consts  --     0.0109                 0.1226                 0.1399
 IR Inten    --    85.7696                 4.3651                71.2173

                     7                      8                      9
                     A                      A                      A
 Frequencies --   383.0888               676.8260               716.7570
 Red. masses --    12.9611                 2.7994                27.5803
 Frc consts  --     1.1207                 0.7556                 8.3482
 IR Inten    --    49.9582               108.3341               188.3749

                    10                     11                     12
                     A                      A                      A
 Frequencies --   822.9213              1016.4670              3969.7681
 Red. masses --     2.0092                 7.8360                 1.0672
 Frc consts  --     0.8016                 4.7702                 9.9085
 IR Inten    --   261.9166               183.4557               141.1908

 - Thermochemistry -
 -------------------
 Temperature   373.150 Kelvin.  Pressure   1.00000 Atm.
 Atom     1 has atomic number 14 and mass  27.97693

 Molecular mass: *********** amu.
 Principal axes and moments of inertia in atomic units:
                           1         2         3
     Eigenvalues --  ******************************
           X           -0.49011   0.81407   0.31159
           Y            0.81024   0.29365   0.50723
           Z           -0.32142  -0.50106   0.80351
 This molecule is an asymmetric top.
 Rotational symmetry number  1.
 Warning -- assumption of classical behavior for rotation
           may cause significant error
 Rotational temperatures (Kelvin)      0.00000     0.00000     0.00000
 Rotational constants (GHZ):           0.00000     0.00000     0.00000
 Zero-point vibrational energy      48618.7 (Joules/Mol)
                                   11.62014 (Kcal/Mol)
 Warning -- explicit consideration of   9 degrees of freedom as
           vibrations may cause significant error
 Vibrational temperatures:      0.01     0.01     0.01   180.18   274.67
          (Kelvin)            325.78   551.18   973.80  1031.25  1184.00
                             1462.47  5711.60

 Zero-point correction=                           0.018518 (Hartree/Particle)
 Thermal correction to Energy=                    0.029306
 Thermal correction to Enthalpy=                  0.030487
 Thermal correction to Gibbs Free Energy=        -0.135963
 Sum of electronic and zero-point Energies=           -664.942430
 Sum of electronic and thermal Energies=              -664.931642
 Sum of electronic and thermal Enthalpies=            -664.930460
 Sum of electronic and thermal Free Energies=         -665.096910

                     E (Thermal)             CV                S
                      KCal/Mol        Cal/Mol-Kelvin    Cal/Mol-Kelvin
 Total                   18.390             23.094            279.912
 Electronic               0.000              0.000              0.000
 Translational            1.112              2.981            105.880
 Rotational               1.112              2.981             92.092
 Vibrational             16.165             17.132             81.940
 Vibration     1          0.742              1.987             24.000
 Vibration     2          0.742              1.987             23.797
 Vibration     3          0.742              1.987             22.727
 Vibration     4          0.756              1.949              3.453
 Vibration     5          0.775              1.900              2.640
 Vibration     6          0.788              1.866              2.319
 Vibration     7          0.872              1.662              1.383
 Vibration     8          1.121              1.160              0.564
 Vibration     9          1.163              1.090              0.499

 1\1\GINC-COMPUTE-0-5\Freq\RwB97XD\Gen\F3H1O1Si1\CRAIGV\03-May-2017\0\\
 #p wb97xd/gen nosymm geom=connectivity freq temp=373.15\\Title Card Re
 quired\\0,1\Si,-1.742775,0.400722,-1.178414\O,-1.196862,1.254934,0.079
 489\F,-1.195433,-1.11954,-1.151769\F,-1.244818,1.098738,-2.532962\F,-3
 .354018,0.351855,-1.243545\H,-1.292218,0.91535,0.968303\\Version=EM64L
 -G09RevC.01\HF=-664.9609476\RMSD=8.883e-09\RMSF=1.125e-03\ZeroPoint=0.
 0185179\Thermal=0.0293057\Dipole=0.0561878,-0.0620326,1.00028\DipoleDe
 riv=2.2425618,0.0413689,0.1346179,0.0429908,2.2667005,0.1922264,0.1070

 Normal termination of Gaussian 09 at Wed May  3 10:15:34 2017.
