 Gaussian 09, Revision D.01,
 Gaussian 09:  ES64L-G09RevD.01 24-Apr-2013

 ----------------------------------------------------------------------
 #p freq temp=373.15 wb97xd/gen nosymm scf(maxcycles=1000) punch=deriva
 tives
 ----------------------------------------------------------------------

 -------------------
 Title Card Required
 -------------------
 Symbolic Z-matrix:
 Charge =  0 Multiplicity = 2

                          Input orientation:
 ---------------------------------------------------------------------
 Center     Atomic      Atomic             Coordinates (Angstroms)
 Number     Number       Type             X           Y           Z
 ---------------------------------------------------------------------
      1          1           0       -2.834882    3.964376    2.816075
      2          1           0        3.653622    3.768381    6.604223
      3          1           0        2.108864    3.090640    7.130849
      4          1           0        2.306492    4.840949    7.000981
      5          1           0        3.787486    5.317372    3.909746
      6          1           0        2.301647    6.235967    4.130798
      7          1           0        2.506143    5.191648    2.713598
      8          1           0        3.721162    2.119311    4.089425
      9          1           0        2.439095    2.236778    2.879162
     10          1           0        2.162508    1.339005    4.383427
     11          1           0       -3.234873    5.595427    5.982801
     12          1           0       -2.381082    4.284829    6.807624
     13          1           0       -3.026560    4.023659    5.195150
     14          1           0       -0.570287    7.114402    3.353289
     15          1           0       -2.178943    6.365236    3.128775
     16          1           0       -0.645154    7.378553    6.492317
     17          1           0        0.927622    6.852301    5.890227
     18          1           0        0.177271    6.004935    7.248781
     19          6           0        0.126877    3.837103    4.559344
     20          1           0       -0.352380    2.888557    4.818999
     21         14           0        1.989433    3.807052    4.744871
     22         14           0       -0.904106    5.344219    5.102841
     23          6           0        2.568992    3.886744    6.540872
     24          6           0        2.702269    5.279553    3.787237
     25          6           0        2.642078    2.221457    3.953133
     26          6           0       -2.543229    4.763019    5.839233
     27          6           0       -1.132275    6.176242    3.392370
     28          6           0       -0.022103    6.503052    6.298136
     29         24           0       -0.270820    4.518489    2.768263
     30          8           0        0.572560    4.130049    1.161526
     31          8           0       -2.066460    3.597927    2.371181
     32          8           0       -1.093551    2.231195    0.335008
     33         14           0       -2.333398    2.260841    1.366751
     34         14           0        0.372966    3.009960    0.025354
     35          8           0        1.528694    1.824214   -0.017437
     36          8           0        0.329463    3.677186   -1.481604
     37          8           0       -3.798246    2.422107    0.623833
     38          8           0       -2.438057    0.962811    2.368174
     39          1           0        1.471990    1.112986    0.626360
     40          1           0        0.721111    3.163278   -2.193277
     41          1           0       -3.813770    2.949492   -0.179508
     42          1           0       -3.058486    0.287828    2.079261
 ---------------------------------------------------------------------

 SCF Done:  E(UwB97XD) =  -3010.14324669     A.U. after   58 cycles

 Alpha  occ. eigenvalues -- -215.94308 -66.39943 -66.35907 -66.27579 -66.26487
 Alpha  occ. eigenvalues --  -24.86107 -21.14673 -21.12524 -21.12115 -19.31291
 Alpha  occ. eigenvalues --  -19.28244 -19.27743 -19.26318 -19.24778 -19.24457
 Alpha  occ. eigenvalues --  -19.21212 -10.26578 -10.26240 -10.25212 -10.25123
 Alpha  occ. eigenvalues --  -10.24981 -10.24258 -10.24138  -5.49476  -5.45417
 Alpha  occ. eigenvalues --   -5.38090  -5.36996  -3.84108  -3.84026  -3.83967
 Alpha  occ. eigenvalues --   -3.80076  -3.79978  -3.79866  -3.72591  -3.72547
 Alpha  occ. eigenvalues --   -3.72517  -3.71481  -3.71460  -3.71428  -2.99998
 Alpha  occ. eigenvalues --   -1.96770  -1.92989  -1.91954  -1.17520  -1.14149
 Alpha  occ. eigenvalues --   -1.12511  -1.12482  -1.09457  -1.09048  -1.02923
 Alpha  occ. eigenvalues --   -0.81945  -0.80491  -0.78041  -0.76945  -0.76702
 Alpha  occ. eigenvalues --   -0.74829  -0.72649  -0.71631  -0.66393  -0.65860
 Alpha  occ. eigenvalues --   -0.63355  -0.61086  -0.60281  -0.56401  -0.55874
 Alpha  occ. eigenvalues --   -0.53699  -0.52466  -0.51075  -0.50956  -0.50078
 Alpha  occ. eigenvalues --   -0.49745  -0.49491  -0.49269  -0.48885  -0.48764
 Alpha  occ. eigenvalues --   -0.48494  -0.47853  -0.47322  -0.46855  -0.46762
 Alpha  occ. eigenvalues --   -0.46517  -0.46326  -0.45645  -0.45331  -0.44879
 Alpha  occ. eigenvalues --   -0.44651  -0.44243  -0.43250  -0.42485  -0.41675
 Alpha  occ. eigenvalues --   -0.40923  -0.39383  -0.39240  -0.38314  -0.37929
 Alpha  occ. eigenvalues --   -0.36923  -0.35402  -0.32342  -0.31925  -0.30601
 Alpha  occ. eigenvalues --   -0.27311
 Alpha virt. eigenvalues --    0.01850   0.03203   0.04941   0.06050   0.09134
 Alpha virt. eigenvalues --    0.09544   0.10910   0.11510   0.12637   0.13108
 Alpha virt. eigenvalues --    0.13999   0.14313   0.14658   0.15047   0.15857

  Beta  occ. eigenvalues -- -215.94282 -66.39943 -66.35904 -66.27578 -66.26478
  Beta  occ. eigenvalues --  -24.84454 -21.12813 -21.11913 -21.10385 -19.31271
  Beta  occ. eigenvalues --  -19.28244 -19.27743 -19.26317 -19.24778 -19.24458
  Beta  occ. eigenvalues --  -19.21225 -10.26582 -10.26247 -10.25214 -10.25120
  Beta  occ. eigenvalues --  -10.24981 -10.24342 -10.24200  -5.49477  -5.45414
  Beta  occ. eigenvalues --   -5.38089  -5.36985  -3.84109  -3.84026  -3.83967
  Beta  occ. eigenvalues --   -3.80075  -3.79976  -3.79861  -3.72592  -3.72541
  Beta  occ. eigenvalues --   -3.72516  -3.71463  -3.71447  -3.71422  -2.95341
  Beta  occ. eigenvalues --   -1.90523  -1.89499  -1.86688  -1.17479  -1.14128
  Beta  occ. eigenvalues --   -1.12510  -1.12481  -1.09454  -1.09048  -1.02925
  Beta  occ. eigenvalues --   -0.81964  -0.80496  -0.78053  -0.76943  -0.76701
  Beta  occ. eigenvalues --   -0.74947  -0.72734  -0.71635  -0.66374  -0.65853
  Beta  occ. eigenvalues --   -0.63342  -0.61085  -0.60280  -0.56369  -0.55852
  Beta  occ. eigenvalues --   -0.53533  -0.52309  -0.50989  -0.50896  -0.50053
  Beta  occ. eigenvalues --   -0.49741  -0.49457  -0.49267  -0.48835  -0.48700
  Beta  occ. eigenvalues --   -0.48489  -0.47834  -0.47321  -0.46848  -0.46673
  Beta  occ. eigenvalues --   -0.46513  -0.46310  -0.45645  -0.45322  -0.44834
  Beta  occ. eigenvalues --   -0.44593  -0.44000  -0.43227  -0.42427  -0.41432
  Beta  occ. eigenvalues --   -0.40862  -0.39219  -0.39092  -0.38280  -0.37958
  Beta  occ. eigenvalues --   -0.36826  -0.35089  -0.32199  -0.31317  -0.25222
  Beta virt. eigenvalues --    0.03712   0.04034   0.05012   0.06066   0.07353
  Beta virt. eigenvalues --    0.09169   0.09585   0.10946   0.11605   0.12654
  Beta virt. eigenvalues --    0.13156   0.14034   0.14344   0.14805   0.15199

 Mulliken charges and spin densities:
               1          2
     1  H    0.348469  -0.000149
     2  H    0.132646   0.000264
     3  H    0.132478  -0.000177
     4  H    0.136730  -0.000131
     5  H    0.151870  -0.000161
     6  H    0.137556   0.000315
     7  H    0.179210   0.000357
     8  H    0.136734   0.000065
     9  H    0.117995   0.000042
    10  H    0.132173   0.000014
    11  H    0.146699  -0.000085
    12  H    0.147465   0.000144
    13  H    0.106414   0.000098
    14  H    0.153251   0.003321
    15  H    0.127154  -0.000930
    16  H    0.150959  -0.000073
    17  H    0.143335   0.000187
    18  H    0.146007  -0.000271
    19  C   -0.413722  -0.065749
    20  H    0.179284   0.016636
    21  Si   0.586116   0.011780
    22  Si   0.462691  -0.000674
    23  C   -0.521963   0.001917
    24  C   -0.606383  -0.001564
    25  C   -0.543650   0.000453
    26  C   -0.515274  -0.001571
    27  C   -0.519316  -0.072189
    28  C   -0.524762  -0.003356
    29  Cr   0.284097   1.112663
    30  O   -0.536111  -0.006361
    31  O   -0.502456   0.002077
    32  O   -0.424211   0.000131
    33  Si   0.765396   0.000127
    34  Si   0.818595   0.002974
    35  O   -0.508849   0.000081
    36  O   -0.496065  -0.000155
    37  O   -0.493430  -0.000070
    38  O   -0.470159  -0.000021
    39  H    0.308132  -0.000016
    40  H    0.310192   0.000014
    41  H    0.318770   0.000017
    42  H    0.315935   0.000027
 Sum of Mulliken charges =   0.00000   1.00000

 Dipole moment (field-independent basis, Debye):
    X=             -3.3932    Y=             -2.1291    Z=              0.4450  Tot=              4.0305
 Quadrupole moment (field-independent basis, Debye-Ang):
   XX=           -144.4613   YY=           -164.4447   ZZ=           -147.7117
   XY=            -10.4760   XZ=             -3.1141   YZ=              2.7207

  Exact polarizability: 215.193 -11.450 203.834   5.096  19.091 236.065
 Approx polarizability: 217.531 -11.769 225.303  -2.121   3.993 242.556

 ******    1 imaginary frequencies (negative Signs) ******

                      1                      2                      3
                      A                      A                      A
 Frequencies --     -0.2644                 0.0396                 0.0686
 Red. masses --     51.2872             56681.0672             12257.9161
 Frc consts  --      0.0000                 0.0001                 0.0000
 IR Inten    --      0.0005                 0.0000                 0.0000

                      4                      5                      6
                      A                      A                      A
 Frequencies --      0.1119                 0.1448                 0.1669
 Red. masses -- 414007.8254            382200.4654             27999.4787
 Frc consts  --      0.0031                 0.0047                 0.0005
 IR Inten    --      0.0000                 0.0000                 0.0000

                      7                      8                      9
                      A                      A                      A
 Frequencies --      0.1921                 0.2402                 0.2652
 Red. masses --   7932.6425              5846.4550              9862.4980
 Frc consts  --      0.0002                 0.0002                 0.0004
 IR Inten    --      0.0000                 0.0000                 0.0001

                     10                     11                     12
                      A                      A                      A
 Frequencies --      0.2958                 0.3980                 0.5318
 Red. masses --  44820.2455              4763.0334               423.7219
 Frc consts  --      0.0023                 0.0004                 0.0001
 IR Inten    --      0.0000                 0.0001                 0.0000

                     13                     14                     15
                      A                      A                      A
 Frequencies --      0.6015                 0.7032                 0.9827
 Red. masses --     83.0112               278.2145                 6.1323
 Frc consts  --      0.0000                 0.0001                 0.0000
 IR Inten    --      0.0005                 0.0001                 0.0040

                     16                     17                     18
                      A                      A                      A
 Frequencies --      1.6903                 1.6960                 1.7107
 Red. masses --   4739.4184            138340.8202              4719.6062
 Frc consts  --      0.0080                 0.2344                 0.0081
 IR Inten    --      0.0000                 0.0000                 0.0000

                     19                     20                     21
                      A                      A                      A
 Frequencies --      1.7175                15.5169                25.2274
 Red. masses --    385.7193                 4.0884                 4.0734
 Frc consts  --      0.0007                 0.0006                 0.0015
 IR Inten    --      0.0000                 0.0466                 0.0305

                     22                     23                     24
                      A                      A                      A
 Frequencies --     39.2033                54.4282                63.2553
 Red. masses --      4.5404                 3.3302                 3.7707
 Frc consts  --      0.0041                 0.0058                 0.0089
 IR Inten    --      0.0195                 0.1227                 0.0246

                     25                     26                     27
                      A                      A                      A
 Frequencies --     83.4734               103.3373               111.0077
 Red. masses --      4.4275                 3.5645                 3.0086
 Frc consts  --      0.0182                 0.0224                 0.0218
 IR Inten    --      0.3058                 1.3876                 0.7302

                     28                     29                     30
                      A                      A                      A
 Frequencies --    141.0274               143.6726               148.2906
 Red. masses --      1.7783                 1.2758                 2.3494
 Frc consts  --      0.0208                 0.0155                 0.0304
 IR Inten    --      5.2615                 1.0266                 3.1018

                     31                     32                     33
                      A                      A                      A
 Frequencies --    152.0572               161.2691               165.7750
 Red. masses --      2.9756                 1.2204                 2.3669
 Frc consts  --      0.0405                 0.0187                 0.0383
 IR Inten    --      1.7684                 0.6912                 0.3540

                     34                     35                     36
                      A                      A                      A
 Frequencies --    174.1724               179.2845               188.1736
 Red. masses --      2.3060                 2.3413                 2.2487
 Frc consts  --      0.0412                 0.0443                 0.0469
 IR Inten    --      2.6421                 5.3311                 4.3764

                     37                     38                     39
                      A                      A                      A
 Frequencies --    196.7846               202.5749               207.7236
 Red. masses --      1.4417                 1.4636                 2.2208
 Frc consts  --      0.0329                 0.0354                 0.0565
 IR Inten    --      1.7558                 2.3746                 2.0624

                     40                     41                     42
                      A                      A                      A
 Frequencies --    214.3950               222.7419               225.4754
 Red. masses --      1.9934                 3.9842                 3.0092
 Frc consts  --      0.0540                 0.1165                 0.0901
 IR Inten    --      3.4976                 4.7097                 1.5787

                     43                     44                     45
                      A                      A                      A
 Frequencies --    235.2698               251.9563               259.5681
 Red. masses --      2.7486                 5.8442                 4.1674
 Frc consts  --      0.0896                 0.2186                 0.1654
 IR Inten    --      5.1866                 0.7618                 2.3298

                     46                     47                     48
                      A                      A                      A
 Frequencies --    274.2226               300.3866               332.2232
 Red. masses --     10.6760                 4.8577                 3.4385
 Frc consts  --      0.4730                 0.2583                 0.2236
 IR Inten    --      5.5507                14.3561                36.2100

                     49                     50                     51
                      A                      A                      A
 Frequencies --    364.2962               436.5565               490.7275
 Red. masses --      1.8979                 6.0601                17.7573
 Frc consts  --      0.1484                 0.6805                 2.5195
 IR Inten    --     35.8475                 7.5614               121.8872

                     52                     53                     54
                      A                      A                      A
 Frequencies --    505.5564               517.8669               563.1834
 Red. masses --      6.0972                14.7596                 3.4446
 Frc consts  --      0.9182                 2.3322                 0.6437
 IR Inten    --     21.4617               128.3755                24.6020

                     55                     56                     57
                      A                      A                      A
 Frequencies --    588.5870               628.6363               639.8867
 Red. masses --      3.2757                 5.4383                 1.9935
 Frc consts  --      0.6686                 1.2662                 0.4809
 IR Inten    --     16.7987                 1.7128                20.2715

                     58                     59                     60
                      A                      A                      A
 Frequencies --    664.5161               669.1980               682.6130
 Red. masses --      2.3861                 7.3187                 2.7611
 Frc consts  --      0.6208                 1.9310                 0.7580
 IR Inten    --     35.1961                10.8373                23.6275

                     61                     62                     63
                      A                      A                      A
 Frequencies --    690.9118               698.9717               703.0348
 Red. masses --      8.7067                 1.1934                 2.3000
 Frc consts  --      2.4488                 0.3435                 0.6698
 IR Inten    --    276.7677                 0.5620                 1.0433

                     64                     65                     66
                      A                      A                      A
 Frequencies --    703.7518               708.5128               724.5009
 Red. masses --      2.0058                 1.6015                 3.1889
 Frc consts  --      0.5853                 0.4737                 0.9862
 IR Inten    --     23.5745                 4.7316                32.6924

                     67                     68                     69
                      A                      A                      A
 Frequencies --    728.0844               730.2694               738.4030
 Red. masses --      2.4586                 2.1993                 1.7367
 Frc consts  --      0.7679                 0.6910                 0.5579
 IR Inten    --     39.6593                 5.8151                49.2439

                     70                     71                     72
                      A                      A                      A
 Frequencies --    759.3380               788.0942               803.9690
 Red. masses --      1.5561                 1.4397                 1.4094
 Frc consts  --      0.5286                 0.5268                 0.5367
 IR Inten    --      3.2697                29.1458                11.6582

                     73                     74                     75
                      A                      A                      A
 Frequencies --    808.4453               828.2367               851.0977
 Red. masses --      1.7467                 7.2709                 1.6721
 Frc consts  --      0.6726                 2.9387                 0.7136
 IR Inten    --     22.9388               219.7525                36.0238

                     76                     77                     78
                      A                      A                      A
 Frequencies --    856.2714               867.7829               872.7373
 Red. masses --      1.5343                 1.5330                 1.6790
 Frc consts  --      0.6628                 0.6802                 0.7535
 IR Inten    --     73.7687                 8.1257                76.9963

                     79                     80                     81
                      A                      A                      A
 Frequencies --    876.9643               882.6329               892.9247
 Red. masses --      1.6361                 1.7720                 1.7573
 Frc consts  --      0.7413                 0.8134                 0.8255
 IR Inten    --    118.9129               183.9531               302.4258

                     82                     83                     84
                      A                      A                      A
 Frequencies --   1014.1117              1050.3069              1066.3939
 Red. masses --      6.4307                 1.5302                 1.5924
 Frc consts  --      3.8965                 0.9945                 1.0669
 IR Inten    --    448.5527               285.0912               362.3991

                     85                     86                     87
                      A                      A                      A
 Frequencies --   1112.6059              1293.5193              1297.0282
 Red. masses --      5.2362                 1.2694                 1.2598
 Frc consts  --      3.8190                 1.2514                 1.2487
 IR Inten    --    610.3762                35.8646                30.8974

                     88                     89                     90
                      A                      A                      A
 Frequencies --   1298.7974              1302.5952              1310.9539
 Red. masses --      1.2611                 1.2423                 1.2353
 Frc consts  --      1.2534                 1.2420                 1.2508
 IR Inten    --     34.6269                36.7658                33.4193

                     91                     92                     93
                      A                      A                      A
 Frequencies --   1433.5840              1457.6492              1460.5545
 Red. masses --      1.1089                 1.0515                 1.0526
 Frc consts  --      1.3427                 1.3163                 1.3230
 IR Inten    --      3.5799                 0.8540                 2.0845

                     94                     95                     96
                      A                      A                      A
 Frequencies --   1463.8734              1466.2556              1470.7080
 Red. masses --      1.0510                 1.0519                 1.0498
 Frc consts  --      1.3270                 1.3324                 1.3378
 IR Inten    --      4.4790                 2.5158                 3.7353

                     97                     98                     99
                      A                      A                      A
 Frequencies --   1474.6494              1478.5957              1481.0087
 Red. masses --      1.0525                 1.0481                 1.0500
 Frc consts  --      1.3485                 1.3501                 1.3569
 IR Inten    --      3.9425                 5.3419                 1.7539

                    100                    101                    102
                      A                      A                      A
 Frequencies --   1483.1437              1490.4957              3038.1588
 Red. masses --      1.0500                 1.0476                 1.0565
 Frc consts  --      1.3609                 1.3713                 5.7458
 IR Inten    --      9.3883                 5.6744                32.6042

                    103                    104                    105
                      A                      A                      A
 Frequencies --   3041.3627              3047.6533              3052.9200
 Red. masses --      1.0373                 1.0349                 1.0356
 Frc consts  --      5.6529                 5.6636                 5.6869
 IR Inten    --      3.5820                 8.0783                10.6401

                    106                    107                    108
                      A                      A                      A
 Frequencies --   3053.7446              3059.7400              3097.4442
 Red. masses --      1.0361                 1.0348                 1.0834
 Frc consts  --      5.6926                 5.7077                 6.1240
 IR Inten    --     12.0266                 9.5243                 4.9161

                    109                    110                    111
                      A                      A                      A
 Frequencies --   3101.8446              3119.0974              3128.6613
 Red. masses --      1.1039                 1.0993                 1.0996
 Frc consts  --      6.2578                 6.3010                 6.3417
 IR Inten    --     21.6958                 6.6094                19.4056

                    112                    113                    114
                      A                      A                      A
 Frequencies --   3130.5076              3131.2663              3132.3317
 Red. masses --      1.1008                 1.1005                 1.1005
 Frc consts  --      6.3558                 6.3576                 6.3616
 IR Inten    --      2.8445                 4.9531                31.7061

                    115                    116                    117
                      A                      A                      A
 Frequencies --   3135.4476              3142.7423              3143.9091
 Red. masses --      1.1012                 1.1016                 1.1014
 Frc consts  --      6.3785                 6.4105                 6.4140
 IR Inten    --     14.7602                 4.6296                17.6951

                    118                    119                    120
                      A                      A                      A
 Frequencies --   3149.7703              3150.8228              3883.3331
 Red. masses --      1.0996                 1.1004                 1.0662
 Frc consts  --      6.4275                 6.4364                 9.4730
 IR Inten    --      8.6250                 9.0291                79.1518

 - Thermochemistry -
 -------------------
 Temperature   373.150 Kelvin.  Pressure   1.00000 Atm.
 Atom     1 has atomic number  1 and mass   1.00783

 Molecular mass: *********** amu.
 Principal axes and moments of inertia in atomic units:
                           1         2         3
     Eigenvalues --  ******************************
           X            0.86133  -0.48155   0.16191
           Y            0.21186   0.63012   0.74704
           Z           -0.46176  -0.60915   0.64477
 This molecule is an asymmetric top.
 Rotational symmetry number  1.
 Warning -- assumption of classical behavior for rotation
           may cause significant error
 Rotational temperatures (Kelvin)      0.00000     0.00000     0.00000
 Rotational constants (GHZ):           0.00000     0.00000     0.00000
    1 imaginary frequencies ignored.
 Zero-point vibrational energy     686645.7 (Joules/Mol)
                                  164.11226 (Kcal/Mol)
 Warning -- explicit consideration of  69 degrees of freedom as
           vibrations may cause significant error
 Vibrational temperatures:      0.06     0.10     0.16     0.21     0.24
          (Kelvin)              0.28     0.35     0.38     0.43     0.57
                                0.77     0.87     1.01     1.41     2.43
                                2.44     2.46     2.47    22.33    36.30
                               56.40    78.31    91.01   120.10   148.68
                              159.72   202.91   206.71   213.36   218.78
                              232.03   238.51   250.59   257.95   270.74
                              283.13   291.46   298.87   308.47   320.48
                              324.41   338.50   362.51   373.46   394.54
                              432.19   477.99   524.14   628.11   706.05
                              727.38   745.09   810.29   846.84   904.47
                              920.65   956.09   962.83   982.13   994.07
                             1005.66  1011.51  1012.54  1019.39  1042.39
                             1047.55  1050.69  1062.40  1092.52  1133.89
                             1156.73  1163.17  1191.65  1224.54  1231.98
                             1248.54  1255.67  1261.75  1269.91  1284.72
                             1459.08  1511.16  1534.30  1600.79  1861.08
                             1866.13  1868.68  1874.14  1886.17  2062.61
                             2097.23  2101.41  2106.18  2109.61  2116.02
                             2121.69  2127.37  2130.84  2133.91  2144.49
                             4371.23  4375.84  4384.89  4392.47  4393.65
                             4402.28  4456.53  4462.86  4487.68  4501.44
                             4504.10  4505.19  4506.72  4511.20  4521.70
                             4523.38  4531.81  4533.33  5587.24

 Zero-point correction=                           0.261530 (Hartree/Particle)
 Thermal correction to Energy=                    0.319682
 Thermal correction to Enthalpy=                  0.320864
 Thermal correction to Gibbs Free Energy=         0.000361
 Sum of electronic and zero-point Energies=          -3009.881717
 Sum of electronic and thermal Energies=             -3009.823565
 Sum of electronic and thermal Enthalpies=           -3009.822383
 Sum of electronic and thermal Free Energies=        -3010.142886

                     E (Thermal)             CV                S
                      KCal/Mol        Cal/Mol-Kelvin    Cal/Mol-Kelvin
 Total                  200.603            140.239            538.975
 Electronic               0.000              0.000              1.377
 Translational            1.112              2.981             81.349
 Rotational               1.112              2.981             71.271
 Vibrational            198.379            134.278            384.978
 Vibration     1          0.742              1.987             19.447
 Vibration     2          0.742              1.987             18.358
 Vibration     3          0.742              1.987             17.385
 Vibration     4          0.742              1.987             16.873
 Vibration     5          0.742              1.987             16.590
 Vibration     6          0.742              1.987             16.311
 Vibration     7          0.742              1.987             15.867
 Vibration     8          0.742              1.987             15.670
 Vibration     9          0.742              1.987             15.453
 Vibration    10          0.742              1.987             14.863
 Vibration    11          0.742              1.987             14.287
 Vibration    12          0.742              1.987             14.043
 Vibration    13          0.742              1.987             13.732
 Vibration    14          0.742              1.987             13.067
 Vibration    15          0.742              1.987             11.989
 Vibration    16          0.742              1.987             11.983
 Vibration    17          0.742              1.987             11.966
 Vibration    18          0.742              1.987             11.958
 Vibration    19          0.742              1.987              7.584
 Vibration    20          0.742              1.986              6.619
 Vibration    21          0.743              1.983              5.744
 Vibration    22          0.744              1.980              5.093
 Vibration    23          0.745              1.977              4.796
 Vibration    24          0.748              1.970              4.249
 Vibration    25          0.751              1.961              3.829
 Vibration    26          0.753              1.957              3.689
 Vibration    27          0.760              1.939              3.222
 Vibration    28          0.760              1.937              3.186
 Vibration    29          0.762              1.934              3.125
 Vibration    30          0.763              1.931              3.076
 Vibration    31          0.765              1.924              2.963
 Vibration    32          0.767              1.921              2.910
 Vibration    33          0.769              1.914              2.815
 Vibration    34          0.771              1.910              2.760
 Vibration    35          0.774              1.902              2.668
 Vibration    36          0.777              1.895              2.583
 Vibration    37          0.779              1.889              2.528
 Vibration    38          0.781              1.884              2.481
 Vibration    39          0.783              1.878              2.421
 Vibration    40          0.787              1.869              2.350
 Vibration    41          0.788              1.867              2.327
 Vibration    42          0.792              1.856              2.248
 Vibration    43          0.799              1.838              2.121
 Vibration    44          0.802              1.829              2.066
 Vibration    45          0.809              1.812              1.966
 Vibration    46          0.823              1.779              1.803
 Vibration    47          0.840              1.736              1.626
 Vibration    48          0.860              1.690              1.468
 Vibration    49          0.909              1.578              1.172
 Vibration    50          0.951              1.487              0.992
 Vibration    51          0.963              1.462              0.948
 Vibration    52          0.973              1.440              0.913
 Vibration    53          1.012              1.361              0.796
 Vibration    54          1.035              1.316              0.737
 Vibration    55          1.073              1.245              0.652
 Vibration    56          1.084              1.225              0.631
 Vibration    57          1.109              1.182              0.585
 Vibration    58          1.113              1.173              0.577
 Vibration    59          1.127              1.150              0.554
 Vibration    60          1.136              1.135              0.540
 Vibration    61          1.144              1.121              0.527
 Vibration    62          1.148              1.114              0.520
 Vibration    63          1.149              1.113              0.519
 Vibration    64          1.154              1.105              0.512
 Vibration    65          1.171              1.077              0.487
 Vibration    66          1.175              1.071              0.482
 Vibration    67          1.177              1.067              0.479
 Vibration    68          1.186              1.053              0.467
 Vibration    69          1.208              1.018              0.438

 Normal termination of Gaussian 09 at Mon Jul 17 03:06:15 2017.
