 Gaussian 09, Revision D.01,
 Gaussian 09:  ES64L-G09RevD.01 24-Apr-2013

 ---------------------------------------------------------
 #p opt=modredundant wb97xd/gen nosymm scf(maxcycles=1000)
 ---------------------------------------------------------

 -------------------
 Title Card Required
 -------------------
 Symbolic Z-matrix:
 Charge =  0 Multiplicity = 2

 SCF Done:  E(UwB97XD) =  -3010.12954129     A.U. after   97 cycles
 SCF Done:  E(UwB97XD) =  -3010.05916240     A.U. after   73 cycles
 SCF Done:  E(UwB97XD) =  -3010.13200863     A.U. after   66 cycles
 SCF Done:  E(UwB97XD) =  -3010.13400181     A.U. after   53 cycles
 SCF Done:  E(UwB97XD) =  -3010.13597710     A.U. after   50 cycles
 SCF Done:  E(UwB97XD) =  -3010.13696488     A.U. after   65 cycles
 SCF Done:  E(UwB97XD) =  -3010.13811701     A.U. after   88 cycles
 SCF Done:  E(UwB97XD) =  -3010.13693940     A.U. after   54 cycles
 SCF Done:  E(UwB97XD) =  -3010.13924658     A.U. after   50 cycles
 SCF Done:  E(UwB97XD) =  -3010.14028600     A.U. after   60 cycles
 SCF Done:  E(UwB97XD) =  -3010.14324554     A.U. after   21 cycles
 SCF Done:  E(UwB97XD) =  -3010.14324620     A.U. after   14 cycles
 SCF Done:  E(UwB97XD) =  -3010.14324651     A.U. after   12 cycles
 SCF Done:  E(UwB97XD) =  -3010.14324668     A.U. after   21 cycles
 SCF Done:  E(UwB97XD) =  -3010.14324675     A.U. after   10 cycles
 SCF Done:  E(UwB97XD) =  -3010.14324678     A.U. after   22 cycles
 SCF Done:  E(UwB97XD) =  -3010.14324681     A.U. after   18 cycles
 SCF Done:  E(UwB97XD) =  -3010.14324684     A.U. after   14 cycles
 SCF Done:  E(UwB97XD) =  -3010.14324686     A.U. after   13 cycles
 SCF Done:  E(UwB97XD) =  -3010.14324686     A.U. after   22 cycles
 Optimization completed on the basis of negligible forces.
    -- Stationary point found.

                          Input orientation:
 ---------------------------------------------------------------------
 Center     Atomic      Atomic             Coordinates (Angstroms)
 Number     Number       Type             X           Y           Z
 ---------------------------------------------------------------------
      1          1           0       -2.835348    3.964397    2.815579
      2          1           0        3.646940    3.788898    6.613598
      3          1           0        2.101239    3.113369    7.140149
      4          1           0        2.298918    4.863042    7.002674
      5          1           0        3.785084    5.327112    3.912364
      6          1           0        2.297364    6.244518    4.125356
      7          1           0        2.506600    5.193525    2.713883
      8          1           0        3.721882    2.129512    4.107212
      9          1           0        2.441622    2.237938    2.894209
     10          1           0        2.163865    1.348683    4.403074
     11          1           0       -3.240848    5.604864    5.974858
     12          1           0       -2.386441    4.297713    6.804562
     13          1           0       -3.029956    4.030891    5.192322
     14          1           0       -0.574139    7.118558    3.343844
     15          1           0       -2.181929    6.367469    3.119512
     16          1           0       -0.653555    7.393414    6.480022
     17          1           0        0.920797    6.865285    5.883692
     18          1           0        0.167661    6.023229    7.244013
     19          6           0        0.124624    3.845774    4.560756
     20          1           0       -0.354049    2.897565    4.822748
     21         14           0        1.986816    3.818331    4.750535
     22         14           0       -0.908707    5.353428    5.098280
     23          6           0        2.562428    3.906809    6.547413
     24          6           0        2.700227    5.286994    3.787505
     25          6           0        2.642878    2.229356    3.968541
     26          6           0       -2.548106    4.772817    5.834569
     27          6           0       -1.135470    6.180095    3.385037
     28          6           0       -0.029732    6.517365    6.290879
     29         24           0       -0.272045    4.521243    2.766999
     30          8           0        0.572578    4.130113    1.161564
     31          8           0       -2.066588    3.597842    2.371344
     32          8           0       -1.093475    2.231209    0.335123
     33         14           0       -2.333375    2.260788    1.366798
     34         14           0        0.373029    3.010023    0.025366
     35          8           0        1.528661    1.824193   -0.017492
     36          8           0        0.329600    3.677299   -1.481629
     37          8           0       -3.798190    2.422088    0.623798
     38          8           0       -2.438175    0.962776    2.368284
     39          1           0        1.472018    1.113006    0.626407
     40          1           0        0.721006    3.163209   -2.193283
     41          1           0       -3.813801    2.949512   -0.179499
     42          1           0       -3.058420    0.287818    2.079215
 ---------------------------------------------------------------------

 Alpha  occ. eigenvalues -- -215.94309 -66.39944 -66.35908 -66.27580 -66.26485
 Alpha  occ. eigenvalues --  -24.86108 -21.14675 -21.12526 -21.12116 -19.31292
 Alpha  occ. eigenvalues --  -19.28244 -19.27743 -19.26318 -19.24778 -19.24457
 Alpha  occ. eigenvalues --  -19.21213 -10.26581 -10.26241 -10.25211 -10.25120
 Alpha  occ. eigenvalues --  -10.24980 -10.24260 -10.24137  -5.49477  -5.45418
 Alpha  occ. eigenvalues --   -5.38091  -5.36993  -3.84109  -3.84027  -3.83968
 Alpha  occ. eigenvalues --   -3.80077  -3.79979  -3.79867  -3.72592  -3.72547
 Alpha  occ. eigenvalues --   -3.72518  -3.71478  -3.71457  -3.71426  -2.99999
 Alpha  occ. eigenvalues --   -1.96770  -1.92991  -1.91956  -1.17520  -1.14149
 Alpha  occ. eigenvalues --   -1.12512  -1.12482  -1.09457  -1.09047  -1.02922
 Alpha  occ. eigenvalues --   -0.81945  -0.80490  -0.78042  -0.76944  -0.76700
 Alpha  occ. eigenvalues --   -0.74830  -0.72648  -0.71631  -0.66392  -0.65861
 Alpha  occ. eigenvalues --   -0.63355  -0.61085  -0.60281  -0.56403  -0.55872
 Alpha  occ. eigenvalues --   -0.53697  -0.52466  -0.51078  -0.50956  -0.50077
 Alpha  occ. eigenvalues --   -0.49745  -0.49491  -0.49267  -0.48885  -0.48763
 Alpha  occ. eigenvalues --   -0.48494  -0.47853  -0.47321  -0.46855  -0.46762
 Alpha  occ. eigenvalues --   -0.46514  -0.46324  -0.45644  -0.45331  -0.44880
 Alpha  occ. eigenvalues --   -0.44650  -0.44241  -0.43251  -0.42486  -0.41674
 Alpha  occ. eigenvalues --   -0.40923  -0.39384  -0.39241  -0.38312  -0.37931
 Alpha  occ. eigenvalues --   -0.36922  -0.35401  -0.32341  -0.31926  -0.30604
 Alpha  occ. eigenvalues --   -0.27313
 Alpha virt. eigenvalues --    0.01848   0.03203   0.04942   0.06049   0.09130
 Alpha virt. eigenvalues --    0.09543   0.10911   0.11507   0.12636   0.13110
 Alpha virt. eigenvalues --    0.13999   0.14313   0.14657   0.15047   0.15856

  Beta  occ. eigenvalues -- -215.94283 -66.39944 -66.35905 -66.27579 -66.26476
  Beta  occ. eigenvalues --  -24.84455 -21.12815 -21.11914 -21.10387 -19.31271
  Beta  occ. eigenvalues --  -19.28245 -19.27742 -19.26317 -19.24777 -19.24458
  Beta  occ. eigenvalues --  -19.21226 -10.26585 -10.26247 -10.25212 -10.25118
  Beta  occ. eigenvalues --  -10.24981 -10.24344 -10.24199  -5.49478  -5.45415
  Beta  occ. eigenvalues --   -5.38090  -5.36983  -3.84110  -3.84027  -3.83968
  Beta  occ. eigenvalues --   -3.80076  -3.79977  -3.79861  -3.72593  -3.72542
  Beta  occ. eigenvalues --   -3.72517  -3.71460  -3.71445  -3.71419  -2.95342
  Beta  occ. eigenvalues --   -1.90524  -1.89499  -1.86690  -1.17480  -1.14129
  Beta  occ. eigenvalues --   -1.12511  -1.12480  -1.09454  -1.09047  -1.02925
  Beta  occ. eigenvalues --   -0.81964  -0.80495  -0.78054  -0.76942  -0.76699
  Beta  occ. eigenvalues --   -0.74949  -0.72734  -0.71635  -0.66373  -0.65854
  Beta  occ. eigenvalues --   -0.63342  -0.61084  -0.60280  -0.56371  -0.55851
  Beta  occ. eigenvalues --   -0.53532  -0.52309  -0.50990  -0.50897  -0.50053
  Beta  occ. eigenvalues --   -0.49741  -0.49457  -0.49265  -0.48834  -0.48700
  Beta  occ. eigenvalues --   -0.48489  -0.47834  -0.47319  -0.46848  -0.46673
  Beta  occ. eigenvalues --   -0.46510  -0.46308  -0.45643  -0.45322  -0.44835
  Beta  occ. eigenvalues --   -0.44593  -0.43999  -0.43228  -0.42428  -0.41431
  Beta  occ. eigenvalues --   -0.40862  -0.39222  -0.39092  -0.38278  -0.37959
  Beta  occ. eigenvalues --   -0.36825  -0.35089  -0.32199  -0.31320  -0.25224
  Beta virt. eigenvalues --    0.03709   0.04034   0.05013   0.06068   0.07352
  Beta virt. eigenvalues --    0.09165   0.09585   0.10947   0.11603   0.12653
  Beta virt. eigenvalues --    0.13158   0.14034   0.14343   0.14805   0.15198

 Mulliken charges and spin densities:
               1          2
     1  H    0.348408  -0.000149
     2  H    0.132641   0.000263
     3  H    0.132460  -0.000177
     4  H    0.136760  -0.000130
     5  H    0.151866  -0.000162
     6  H    0.137537   0.000315
     7  H    0.179076   0.000358
     8  H    0.136656   0.000065
     9  H    0.118469   0.000037
    10  H    0.132172   0.000013
    11  H    0.146730  -0.000085
    12  H    0.147491   0.000144
    13  H    0.106360   0.000098
    14  H    0.153249   0.003333
    15  H    0.127191  -0.000933
    16  H    0.150962  -0.000073
    17  H    0.143418   0.000187
    18  H    0.146043  -0.000272
    19  C   -0.413492  -0.065751
    20  H    0.179186   0.016617
    21  Si   0.585673   0.011769
    22  Si   0.462444  -0.000671
    23  C   -0.522235   0.001907
    24  C   -0.606196  -0.001555
    25  C   -0.543504   0.000465
    26  C   -0.515186  -0.001572
    27  C   -0.519227  -0.072193
    28  C   -0.524862  -0.003359
    29  Cr   0.284353   1.112679
    30  O   -0.536059  -0.006357
    31  O   -0.502362   0.002081
    32  O   -0.424297   0.000129
    33  Si   0.765418   0.000129
    34  Si   0.818565   0.002973
    35  O   -0.508940   0.000083
    36  O   -0.496082  -0.000155
    37  O   -0.493486  -0.000069
    38  O   -0.470128  -0.000022
    39  H    0.308060  -0.000017
    40  H    0.310181   0.000014
    41  H    0.318774   0.000017
    42  H    0.315914   0.000027
 Sum of Mulliken charges =   0.00000   1.00000

 Dipole moment (field-independent basis, Debye):
    X=             -3.3950    Y=             -2.1276    Z=              0.4437  Tot=              4.0311
 Quadrupole moment (field-independent basis, Debye-Ang):
   XX=           -144.4679   YY=           -164.4216   ZZ=           -147.7286
   XY=            -10.4884   XZ=             -3.1206   YZ=              2.7272

 Normal termination of Gaussian 09 at Mon Jul 17 06:33:45 2017.
