 Gaussian 09, Revision C.01,
 Gaussian 09:  EM64L-G09RevC.01 23-Sep-2011

 ------------------------------------------
 #p wb97xd/gen nosymm geom=connectivity opt
 ------------------------------------------

 (Enter /share/apps/gaussian09/g09/l101.exe)
 -------------------
 Title Card Required
 -------------------
 Charge =  0 Multiplicity = 2

 SCF Done:  E(UwB97XD) =  -664.251212361     A.U. after   26 cycles
 SCF Done:  E(UwB97XD) =  -664.252583443     A.U. after   24 cycles
 SCF Done:  E(UwB97XD) =  -664.252744741     A.U. after   20 cycles
 SCF Done:  E(UwB97XD) =  -664.252745940     A.U. after   10 cycles
 SCF Done:  E(UwB97XD) =  -664.252746478     A.U. after   10 cycles
 Optimization completed.
    -- Stationary point found.

                          Input orientation:
 ---------------------------------------------------------------------
 Center     Atomic      Atomic             Coordinates (Angstroms)
 Number     Number       Type             X           Y           Z
 ---------------------------------------------------------------------
      1         14           0       -1.752361    0.380588   -1.193552
      2          8           0       -1.176141    1.123831    0.175682
      3          9           0       -1.195433   -1.119540   -1.151769
      4          9           0       -1.244818    1.098738   -2.532962
      5          9           0       -3.354018    0.351855   -1.243545
 ---------------------------------------------------------------------

 Alpha  occ. eigenvalues --  -66.46696 -24.86937 -24.86526 -24.86519 -19.37080
 Alpha  occ. eigenvalues --   -5.56302  -3.90967  -3.90883  -3.90717  -1.36234
 Alpha  occ. eigenvalues --   -1.33635  -1.33258  -1.16059  -0.69982  -0.63435
 Alpha  occ. eigenvalues --   -0.62708  -0.61134  -0.58168  -0.57388  -0.56752
 Alpha  occ. eigenvalues --   -0.55402  -0.54261  -0.53653  -0.53350  -0.49299
 Alpha virt. eigenvalues --    0.07370   0.14442   0.15485   0.16097   0.29086
 Alpha virt. eigenvalues --    0.29780   0.30939   0.31924   0.49572   0.50719
 Alpha virt. eigenvalues --    0.52171   0.60443   0.60563   0.68815   0.85644

  Beta  occ. eigenvalues --  -66.46713 -24.86853 -24.86512 -24.86506 -19.34982
  Beta  occ. eigenvalues --   -5.56323  -3.90978  -3.90901  -3.90754  -1.36110
  Beta  occ. eigenvalues --   -1.33486  -1.33222  -1.08496  -0.69590  -0.62642
  Beta  occ. eigenvalues --   -0.62622  -0.60255  -0.57277  -0.57263  -0.55196
  Beta  occ. eigenvalues --   -0.55135  -0.53270  -0.52217  -0.46678
  Beta virt. eigenvalues --   -0.16214   0.07877   0.15432   0.15688   0.16931
  Beta virt. eigenvalues --    0.29372   0.29700   0.31286   0.32013   0.50070
  Beta virt. eigenvalues --    0.52755   0.54595   0.60447   0.61176   0.69894

 Mulliken atomic charges:
              1
     1  Si   1.076248
     2  O   -0.207384
     3  F   -0.287640
     4  F   -0.290479
     5  F   -0.290744
 Sum of Mulliken atomic charges =   0.00000

 Dipole moment (field-independent basis, Debye):
    X=              0.0083    Y=              0.2142    Z=              0.1422  Tot=              0.2572
 Quadrupole moment (field-independent basis, Debye-Ang):
   XX=            -33.8350   YY=            -32.5628   ZZ=            -34.2503
   XY=             -0.7322   XZ=             -0.3028   YZ=             -0.1192

 Normal termination of Gaussian 09 at Wed May  3 09:59:58 2017.
