 Gaussian 09, Revision C.01,
 Gaussian 09:  EM64L-G09RevC.01 23-Sep-2011

 ----------------------------------------------------------------------
 #p opt=(modredundant,tight) int=grid=ultrafine wb97xd/gen nosymm geom=
 connectivity
 ----------------------------------------------------------------------

 (Enter /share/apps/gaussian09/g09/l101.exe)
 --------------------
 TS[F3SiO - H - C2H3]
 --------------------
 Charge =  0 Multiplicity = 2

 SCF Done:  E(UwB97XD) =  -742.802893796     A.U. after   26 cycles
 SCF Done:  E(UwB97XD) =  -742.815931068     A.U. after   23 cycles
 SCF Done:  E(UwB97XD) =  -742.829884286     A.U. after   21 cycles
 SCF Done:  E(UwB97XD) =  -742.837799887     A.U. after   21 cycles
 SCF Done:  E(UwB97XD) =  -742.841671464     A.U. after   23 cycles
 SCF Done:  E(UwB97XD) =  -742.843568771     A.U. after   24 cycles
 SCF Done:  E(UwB97XD) =  -742.843478863     A.U. after   23 cycles
 SCF Done:  E(UwB97XD) =  -742.844980118     A.U. after   23 cycles
 SCF Done:  E(UwB97XD) =  -742.845732941     A.U. after   18 cycles
 SCF Done:  E(UwB97XD) =  -742.845915713     A.U. after   20 cycles
 SCF Done:  E(UwB97XD) =  -742.847642479     A.U. after   20 cycles
 SCF Done:  E(UwB97XD) =  -742.847643871     A.U. after   12 cycles
 SCF Done:  E(UwB97XD) =  -742.847644271     A.U. after   15 cycles
 SCF Done:  E(UwB97XD) =  -742.847644333     A.U. after   11 cycles
 SCF Done:  E(UwB97XD) =  -742.847644338     A.U. after    9 cycles
 SCF Done:  E(UwB97XD) =  -742.847644339     A.U. after    9 cycles
 SCF Done:  E(UwB97XD) =  -742.847644339     A.U. after    5 cycles
 SCF Done:  E(UwB97XD) =  -742.847644339     A.U. after    8 cycles
 SCF Done:  E(UwB97XD) =  -742.847644339     A.U. after    5 cycles
 SCF Done:  E(UwB97XD) =  -742.847644339     A.U. after    5 cycles
 Optimization completed.
    -- Stationary point found.

                          Input orientation:
 ---------------------------------------------------------------------
 Center     Atomic      Atomic             Coordinates (Angstroms)
 Number     Number       Type             X           Y           Z
 ---------------------------------------------------------------------
      1         14           0       -1.815461    0.274384   -1.242485
      2          8           0       -1.291219    1.027363    0.094869
      3          9           0       -1.278088   -1.245385   -1.234675
      4          9           0       -1.327473    0.972893   -2.615868
      5          9           0       -3.436673    0.226010   -1.326451
      6          1           0       -1.799406    2.223645    0.120479
      7          6           0       -2.381082    3.344890   -0.186870
      8          6           0       -3.662309    3.315375   -0.436274
      9          1           0       -1.643932    4.138183   -0.168280
     10          1           0       -4.208449    4.240573   -0.606509
     11          1           0       -4.226549    2.390127   -0.470752
 ---------------------------------------------------------------------

 Alpha  occ. eigenvalues --  -66.43403 -24.83978 -24.83728 -24.83612 -19.30041
 Alpha  occ. eigenvalues --  -10.35680 -10.33199  -5.52926  -3.87593  -3.87533
 Alpha  occ. eigenvalues --   -3.87317  -1.33036  -1.30408  -1.30207  -1.11827
 Alpha  occ. eigenvalues --   -0.92219  -0.72956  -0.67450  -0.63395  -0.59952
 Alpha  occ. eigenvalues --   -0.59638  -0.58931  -0.57291  -0.54859  -0.54464
 Alpha  occ. eigenvalues --   -0.53189  -0.52413  -0.52096  -0.50545  -0.49494
 Alpha  occ. eigenvalues --   -0.45004  -0.41687  -0.39919
 Alpha virt. eigenvalues --    0.03005   0.09852   0.12892   0.14623   0.17000
 Alpha virt. eigenvalues --    0.17736   0.18637   0.20439   0.24040   0.26106
 Alpha virt. eigenvalues --    0.27158   0.27704   0.30842   0.31028   0.32868

  Beta  occ. eigenvalues --  -66.43409 -24.83982 -24.83684 -24.83619 -19.28890
  Beta  occ. eigenvalues --  -10.34913 -10.33257  -5.52933  -3.87593  -3.87540
  Beta  occ. eigenvalues --   -3.87331  -1.33000  -1.30355  -1.30202  -1.08399
  Beta  occ. eigenvalues --   -0.90752  -0.70824  -0.67056  -0.60878  -0.59928
  Beta  occ. eigenvalues --   -0.58900  -0.58031  -0.56410  -0.54623  -0.54418
  Beta  occ. eigenvalues --   -0.52448  -0.52026  -0.51071  -0.50484  -0.46716
  Beta  occ. eigenvalues --   -0.43639  -0.40718
  Beta virt. eigenvalues --   -0.12512   0.03733   0.10234   0.13262   0.14860
  Beta virt. eigenvalues --    0.17215   0.18089   0.18964   0.20754   0.24308
  Beta virt. eigenvalues --    0.26390   0.27520   0.27866   0.31020   0.31988

 Mulliken atomic charges:
              1
     1  Si   1.067317
     2  O   -0.421528
     3  F   -0.300745
     4  F   -0.311041
     5  F   -0.316706
     6  H    0.225411
     7  C   -0.236090
     8  C   -0.234668
     9  H    0.192069
    10  H    0.157744
    11  H    0.178238
 Sum of Mulliken atomic charges =   0.00000

 Dipole moment (field-independent basis, Debye):
    X=             -1.3818    Y=              3.6439    Z=              0.6938  Tot=              3.9584
 Quadrupole moment (field-independent basis, Debye-Ang):
   XX=            -39.0285   YY=            -31.8195   ZZ=            -51.2574
   XY=            -10.7102   XZ=             -0.5996   YZ=             -1.0040

 Normal termination of Gaussian 09 at Sat May 13 17:58:48 2017.
