 Gaussian 09, Revision C.01,
 Gaussian 09:  EM64L-G09RevC.01 23-Sep-2011

 -----------------------------------------------------
 #p opt freq temp=373.15 wb97xd/TZVP punch=derivatives
 -----------------------------------------------------

 (Enter /share/apps/gaussian09/g09/l101.exe)
 ---
 VCM
 ---
 Charge =  0 Multiplicity = 1

 SCF Done:  E(RwB97XD) =  -538.189085004     A.U. after   17 cycles
 SCF Done:  E(RwB97XD) =  -538.192462167     A.U. after   14 cycles
 SCF Done:  E(RwB97XD) =  -538.192637382     A.U. after   13 cycles
 SCF Done:  E(RwB97XD) =  -538.192640886     A.U. after    8 cycles
 Optimization completed.
    -- Stationary point found.
 Normal termination of Gaussian 09 at Tue Jul 18 10:47:58 2017.

 -----------------------------------------------------------------
 #P Geom=AllCheck Guess=TCheck SCRF=Check GenChk RwB97XD/TZVP Freq
 -----------------------------------------------------------------

 Structure from the checkpoint file:  /data/craigv/TutorialFiles/VCM/opt.chk
 ---
 VCM
 ---
 Charge =  0 Multiplicity = 1

                         Standard orientation:
 ---------------------------------------------------------------------
 Center     Atomic      Atomic             Coordinates (Angstroms)
 Number     Number       Type             X           Y           Z
 ---------------------------------------------------------------------
      1          6           0        1.634504   -0.284784    0.000000
      2          1           0        1.553914   -1.363824    0.000000
      3          1           0        2.622198    0.158225    0.000000
      4          6           0        0.576964    0.500940    0.000000
      5          1           0        0.623560    1.580885    0.000000
      6         17           0       -1.062852   -0.098366    0.000000
 ---------------------------------------------------------------------

 SCF Done:  E(RwB97XD) =  -538.192640886     A.U. after    1 cycles

 The electronic state is 1-A.
 Alpha  occ. eigenvalues -- -101.72779 -10.35496 -10.29999  -9.59253  -7.34097
 Alpha  occ. eigenvalues --   -7.33137  -7.33091  -0.97635  -0.85625  -0.68172
 Alpha  occ. eigenvalues --   -0.58225  -0.54210  -0.46981  -0.45582  -0.39817
 Alpha  occ. eigenvalues --   -0.34872
 Alpha virt. eigenvalues --    0.05770   0.11023   0.13973   0.16231   0.20171
 Alpha virt. eigenvalues --    0.25050   0.26566   0.29208   0.29294   0.37135
 Alpha virt. eigenvalues --    0.37347   0.38201   0.42546   0.46115   0.46966

 Mulliken atomic charges:
              1
     1  C   -0.274632
     2  H    0.152229
     3  H    0.139687
     4  C   -0.114967
     5  H    0.184213
     6  Cl  -0.086529
 Sum of Mulliken atomic charges =   0.00000

 Dipole moment (field-independent basis, Debye):
    X=              1.5540    Y=              0.4582    Z=              0.0000  Tot=              1.6202
 Quadrupole moment (field-independent basis, Debye-Ang):
   XX=            -23.2687   YY=            -22.9874   ZZ=            -27.0966
   XY=              0.2654   XZ=              0.0000   YZ=              0.0000

  Exact polarizability:  49.717  -2.767  30.462   0.000   0.000  20.707
 Approx polarizability:  51.171  -3.361  33.067   0.000   0.000  22.242

                     1                      2                      3
                     A                      A                      A
 Frequencies --   406.3608               631.7868               722.9103
 Red. masses --     2.9975                 1.4139                 4.1491
 Frc consts  --     0.2916                 0.3325                 1.2775
 IR Inten    --     0.3233                15.8420                44.7918

                     4                      5                      6
                     A                      A                      A
 Frequencies --   940.7356               982.1793              1054.8015
 Red. masses --     1.3588                 1.0971                 1.4332
 Frc consts  --     0.7085                 0.6236                 0.9395
 IR Inten    --    48.6331                31.1035                20.5632

                     7                      8                      9
                     A                      A                      A
 Frequencies --  1314.1085              1419.2491              1699.6715
 Red. masses --     1.1843                 1.1673                 4.6232
 Frc consts  --     1.2050                 1.3853                 7.8691
 IR Inten    --    12.2052                 8.2365                61.7777

                    10                     11                     12
                     A                      A                      A
 Frequencies --  3183.1684              3244.6316              3281.0082
 Red. masses --     1.0590                 1.0983                 1.1172
 Frc consts  --     6.3220                 6.8122                 7.0861
 IR Inten    --     0.0378                 3.6372                 1.8019

 - Thermochemistry -
 -------------------
 Temperature   373.150 Kelvin.  Pressure   1.00000 Atm.
 Atom     1 has atomic number  6 and mass  12.00000

 Molecular mass:    61.99233 amu.
 Principal axes and moments of inertia in atomic units:
                           1         2         3
     Eigenvalues --    31.17572 302.74917 333.92489
           X            0.99995  -0.01013   0.00000
           Y            0.01013   0.99995   0.00000
           Z            0.00000   0.00000   1.00000
 This molecule is an asymmetric top.
 Rotational symmetry number  1.
 Rotational temperatures (Kelvin)      2.77825     0.28609     0.25938
 Rotational constants (GHZ):          57.88932     5.96118     5.40463
 Zero-point vibrational energy     112931.1 (Joules/Mol)
                                   26.99119 (Kcal/Mol)
 Warning -- explicit consideration of   3 degrees of freedom as
           vibrations may cause significant error
 Vibrational temperatures:    584.66   909.00  1040.11  1353.51  1413.14
          (Kelvin)           1517.62  1890.71  2041.98  2445.45  4579.86
                             4668.30  4720.63

 Zero-point correction=                           0.043013 (Hartree/Particle)
 Thermal correction to Energy=                    0.047920
 Thermal correction to Enthalpy=                  0.049102
 Thermal correction to Gibbs Free Energy=         0.009874
 Sum of electronic and zero-point Energies=           -538.149628
 Sum of electronic and thermal Energies=              -538.144721
 Sum of electronic and thermal Enthalpies=            -538.143539
 Sum of electronic and thermal Free Energies=         -538.182767

                     E (Thermal)             CV                S
                      KCal/Mol        Cal/Mol-Kelvin    Cal/Mol-Kelvin
 Total                   30.070             12.603             65.968
 Electronic               0.000              0.000              0.000
 Translational            1.112              2.981             39.407
 Rotational               1.112              2.981             23.339
 Vibrational             27.846              6.641              3.221
 Vibration     1          0.887              1.626              1.286
 Vibration     2          1.076              1.239              0.646
 Vibration     3          1.169              1.080              0.490

 Optimization completed.
    -- Stationary point found.
 Normal termination of Gaussian 09 at Tue Jul 18 10:48:13 2017.
